16
Lattice="6.376 0.0 0.0 0.0 6.376 0.0 0.0 0.0 6.376" Properties=species:S:1:pos:R:3:momenta:R:3:forces:R:3 Temperature=484.06546672731326 Step=134500 energy=-202.7907525039837 free_energy=-202.7907525039837 stress="-0.015217501570342233 1.805323271293409e-05 0.00013300559920836143 1.805323271293409e-05 -0.016789802116298137 0.0004256289393054508 0.00013300559920836143 0.0004256289393054508 -0.018170577277103472" pbc="T T T"
W       -0.12260269       0.09746558       0.15392013      -2.01027410      -0.87694470      -4.20264390       1.06968454      -0.17093621      -1.31024801
W        1.74255749       1.55173655       1.66031902      -1.81839443      -1.53491767       4.33692613      -1.10078631       0.14300358      -0.32291762
W        0.00673283       0.04026759       3.19764076       0.44673884       4.73042274       0.60285510       0.12428127      -0.76503393       0.43663323
W        1.61947168       1.54060208       4.73179214       4.10515778      -3.22186355      -0.62101795      -0.36395221       0.14492324       0.18501972
W       -0.06530075       3.28898623      -0.05497949       3.00096902       2.43228916       4.16552658       1.02776169      -1.62312966       0.43360048
W        1.47854773       4.81369372       1.55987057      -1.11199538       2.21912390      -0.75984881       1.05443091       0.07033082       0.19266346
W        0.02871391       3.17998420       3.03785650      -1.52380969       1.98916855       0.58538917       0.32902372       0.42433374       1.23007917
W        1.55680027       4.71831675       4.89268895      -4.72079810      -0.13191059      -0.83822348       0.20518152       0.85968461      -0.94918637
W        3.22493181       0.09183431       0.04278582       0.01197873       0.86797109       0.40895209      -0.51878208      -0.82084475      -0.42211067
W        4.82127419       1.60318542       1.71391481      -3.89494640      -4.60924027      -1.42190301      -0.33123733       0.01014103      -0.92221231
W        3.30611179      -0.04329433       3.23291355       1.26051366      -6.84592030      -2.70979255      -0.85216390      -0.41075986       0.06792863
W        4.70180299       1.65586309       4.72552573       4.02311598       2.19322822       3.41512681       0.86391404      -0.52191777       0.23694338
W        3.11911038       3.10948575      -0.08792583      -2.25461855      -1.71149155       1.22344661      -0.00422213       0.51979319       0.50017683
W        4.74303639       4.72059195       1.46687977       6.11215432       3.05810274      -3.43766843       0.02355714       0.66982704       0.95342919
W        3.26731249       3.19587851       3.07934159      -1.26110649       1.94443807      -0.55144174      -1.02301800       0.45229874       0.92541763
W        4.82749949       4.69140255       4.90345588      -0.36468518      -0.50245584      -0.19568262      -0.50367287       1.01828620      -1.23521676
16
Lattice="6.376 0.0 0.0 0.0 6.376 0.0 0.0 0.0 6.376" Properties=species:S:1:pos:R:3:momenta:R:3:forces:R:3 Temperature=666.7994253963304 Step=139500 energy=-203.08372561559963 free_energy=-203.08372561559963 stress="-0.012710152087196737 -7.322134792126939e-05 0.0006812340595413202 -7.322134792126939e-05 -0.013249592804734091 0.000326284172326465 0.0006812340595413202 0.000326284172326465 -0.012487405299856183" pbc="T T T"
W        0.05739266       0.02323817      -0.08183520       2.22515222      -2.46352530      -7.12701100      -0.48523899       0.13092874       0.01088184
W        1.58399210       1.43829547       1.64525164       2.29303636      -2.45884860      -1.33212047       0.10240990       1.27539261      -0.46356361
W       -0.12708903       0.04891281       3.10038060       1.09584269      -1.05309088       3.54626574       0.91696463      -0.62614444       1.16132959
W        1.68576394       1.60155539       4.74845488      -2.56094814      -1.77592832      -4.62625603      -0.74726816       0.26061172       0.23849842
W        0.06122191       3.17312700       0.15091341       4.59382927       3.01665620      -0.84966805      -0.19749772      -0.45337263      -1.13490330
W        1.49116569       4.81339253       1.48601300      -5.42285457       0.42240440       3.82372918       0.78576446      -0.11863045       0.63429744
W        0.00655111       3.25021814       3.22644243       2.22712126      -4.86588652       1.12457895      -0.07679452      -0.43003805      -0.09997769
W        1.60152875       4.78928550       4.72334033       4.58880602       2.45333866      -4.94508849      -0.00839702      -0.13303528       0.49149415
W        3.26893373      -0.02124216      -0.08725340      -1.61478455       1.87443220      -1.98961081      -0.48265264       0.07806486       0.33737428
W        4.77818431       1.51445297       1.70241160       0.98173678      -2.73184632       2.24254056      -0.17453323       0.95873883      -1.02414491
W        3.13839957       0.07790295       3.13706116      -1.20313793      -4.52134053       0.36939639       0.34641067      -1.25877689       0.54528874
W        4.68272363       1.61888448       4.73245204      -5.83510145      -0.92775245       4.01702500       0.89603331       0.28830984       0.61711743
W        3.24603414       3.17025848       0.12372528      -5.11567219       1.13570774       2.64102699      -0.51899787      -0.06164127      -0.67213198
W        4.77639989       4.78285915       1.52688151      -0.37982288       2.22745957       1.19442320       0.00947862      -0.10742136       0.51976558
W        3.13458182       3.25741426       3.22612225      -0.29847362       8.07622517      -0.21904782       0.26740703      -0.06675551      -0.29929476
W        4.87021577       4.71744483       4.89563837       4.42527073       1.59199495       2.12981665      -0.63308845       0.26376928      -0.86203123
16
Lattice="6.376 0.0 0.0 0.0 6.376 0.0 0.0 0.0 6.376" Properties=species:S:1:pos:R:3:momenta:R:3:forces:R:3 Temperature=466.20367212979767 Step=144500 energy=-202.6844087992402 free_energy=-202.6844087992402 stress="-0.012212059836108879 0.0008886565857055935 -0.0015334602352523167 0.0008886565857055935 -0.02074543307261317 0.0003897385508146963 -0.0015334602352523167 0.0003897385508146963 -0.017939031426290837" pbc="T T T"
W       -0.06772435       0.11004243       0.06212060       5.35627280      -0.87644117      -6.27498636       0.27250525      -0.47578400      -1.04421534
W        1.49195201       1.38758159       1.67905382      -2.50844456       1.81641281       1.89742237       0.96172472       1.69191432      -0.38758907
W        0.08109509      -0.08447369       3.31448671      -0.25786503       2.30443756       5.13376863      -1.25689285       0.52497058      -0.36875822
W        1.70609045       1.55202497       4.65135848       2.84561549      -0.44695231       2.32111549      -0.69977233       0.64300412       0.78315487
W       -0.00325954       3.11931103      -0.11559286       1.14626024       0.47571895      -0.64611814       0.15773616      -0.01536802       1.13018505
W        1.60952836       4.93964375       1.58445774      -2.09123597      -0.03077674       5.97569465      -0.13338670      -1.08051297       0.02493338
W        0.11331842       3.25824616       3.13331921       2.62697055       0.17420502       0.67707675      -0.97115258      -0.76655359      -0.09606381
W        1.49342647       4.70297776       4.83525230      -3.07422403      -2.05437240      -3.52133728       0.97938922       0.51958907      -0.15460342
W        3.13472473       0.06488636       0.01115464      -3.66683918      -0.90830633       1.22749820       0.48105321      -0.16323396      -0.02463759
W        4.72664680       1.53439382       1.54978782       1.07380130      -0.67984737      -4.80573012       0.26090608       0.68733870       0.68786339
W        3.23831801      -0.03554544       3.33126389       1.86128189      -1.84337286       5.81527743       0.32811254      -0.36181582      -1.01448294
W        4.74520326       1.65697820       4.71615662      -0.81640784      -2.67458610      -0.35144087       0.04048988       0.08448556       0.08962289
W        3.10908297       3.31699247       0.01725887      -2.88134572       1.39420568      -3.35162528       0.28381685      -1.36804711       0.20031987
W        4.94947069       4.80024458       1.49381214       2.62553222       0.62799807      -2.14895282      -1.17574727      -0.15322062       0.75511276
W        3.18459476       3.22176107       3.05877743       1.04361678       3.30121403      -2.40086272       0.28477853       0.09337387       0.45688069
W        4.74353187       4.71093491       4.93333249      -3.28298893      -0.57953684       0.45320007       0.18643929       0.13985984      -1.03772253
16
Lattice="6.376 0.0 0.0 0.0 6.376 0.0 0.0 0.0 6.376" Properties=species:S:1:pos:R:3:momenta:R:3:forces:R:3 Temperature=440.73776500791604 Step=149500 energy=-202.62465499797875 free_energy=-202.62465499797875 stress="-0.015261778917851307 -0.002085527906195566 -0.0007593966323411652 -0.002085527906195566 -0.014183487773464523 0.0005461765024134832 -0.0007593966323411652 0.0005461765024134832 -0.02112806847844673" pbc="T T T"
W        0.04614047       0.01784990      -0.17981773       1.53241888       2.96008081      -0.02992687       0.05413188       0.29820467       0.87498266
W        1.60059288       1.48146608       1.72952643      -4.58431112       0.22602216      -2.17255122      -0.19223355       0.72035511      -0.94587638
W       -0.07644629       0.03596623       3.28830706      -1.19682119       2.24008337       1.01461493      -0.13219436       0.03759269      -0.38165317
W        1.77139731       1.63295894       4.64001288       3.68625279       1.74212783      -2.45499235      -0.89828712       0.14146572       0.94343732
W        0.12296609       3.13291525      -0.07426098       4.70357584       0.04934408      -0.08021584      -0.44514989      -0.11638188       0.84879205
W        1.28648195       4.89506293       1.64233051      -0.22201115      -4.08702381       3.51314910       1.81200392      -0.57829266      -0.48661144
W       -0.06451039       3.29326502       3.25006071      -3.57838464       1.94988265       3.38799720       0.32372289      -0.97332929      -0.68402437
W        1.68262617       4.80006583       4.76148240       1.71691198      -3.65972264      -6.35220526      -0.56162844      -0.40600413       0.14385526
W        3.26287838      -0.09179302      -0.12079718      -1.48573915       0.33183657      -4.96160111      -0.81845550       0.75036115       1.39903378
W        4.89864975       1.49123614       1.59162415      -2.14145216      -0.17809183      -1.25850946      -0.79350922       0.75260443      -0.09677051
W        3.12171540       0.00770867       3.18755376       2.44090692      -2.04598783       1.07739459       1.16009113      -0.47231638      -0.52819871
W        4.69436786       1.64206055       4.85147421      -1.36274932       1.60802585       4.35252734       0.48789494       0.09092376      -0.35805852
W        3.11066544       3.16319981       0.15978151       1.50107274       1.63458518       3.51190103       0.32054568      -0.05011077      -0.27278863
W        4.75193345       4.80202749       1.45025693      -0.16153140      -5.33702017       0.95149646       0.37842605      -0.24308570       0.79885441
W        3.19787479       3.27527304       3.20696781       2.03125613       0.43364965       0.15938548       0.03242369      -0.30542350      -0.91751859
W        4.84866675       4.67673709       4.87149743      -2.87939515       2.13220813      -0.65846401      -0.72778211       0.35343677      -0.33745515
16
Lattice="6.376 0.0 0.0 0.0 6.376 0.0 0.0 0.0 6.376" Properties=species:S:1:pos:R:3:momenta:R:3:forces:R:3 Temperature=596.5076760396036 Step=154500 energy=-202.81311928665707 free_energy=-202.81311928665707 stress="-0.015680180613127287 0.00020692314722826425 -7.259233178589323e-05 0.00020692314722826425 -0.011316559603522706 -0.0008401840009339452 -7.259233178589323e-05 -0.0008401840009339452 -0.017668646249910564" pbc="T T T"
W        0.05773848       0.08317380      -0.13043009       2.33110516       3.88832923       0.71797048      -0.40676316      -0.05275588       0.89546614
W        1.56617229       1.53619710       1.74296082       1.96606939      -0.58798529       0.38831762       0.04162091       0.01218584      -1.08714097
W       -0.01858472      -0.07492137       3.38124004       0.91397958       1.09307244       1.97112639      -0.56798365       0.72658159      -1.07051763
W        1.67572134       1.61138027       4.61072925      -4.50023802      -1.69736871       1.45987623      -0.59001954      -0.05817016       1.06757238
W        0.02400815       3.22777243       0.07674169       1.23773145      -5.60932421      -0.79940823       0.15735041      -0.60795513      -0.68813363
W        1.60291069       4.83225867       1.61316085      -2.40058060      -2.08076508       3.46779520      -0.21893516       0.00584446      -0.13914284
W       -0.01343349       3.14693136       3.18196206       1.34769031       0.62681678       0.60524688      -0.25709952       0.04257135       0.14237747
W        1.61838746       4.79305107       4.71383094       1.84194310      -1.22521875      -1.83521546      -0.28402337      -0.29630442       0.46889522
W        3.13646771       0.04994386       0.01605179       0.40470820       1.61668233      -1.86752762       0.46022266      -0.26894692       0.09700179
W        4.77003067       1.63596169       1.53826587       4.62148677       3.57955195      -6.29226397       0.14280184      -0.66269650       0.37448502
W        3.20108953      -0.15551747       3.24559911       4.23385667       1.44785389       1.62632878       0.75164664       0.92097631      -0.69185753
W        4.61217730       1.68844845       4.85573433      -8.75924405      -3.43037905       4.05565170       0.99019452      -0.63208950      -0.45563039
W        3.05903718       3.25990723      -0.11565053      -6.27375333       0.45981246       3.33185025       0.66167871      -0.47934984       1.56885621
W        5.02118525       4.80293768       1.58115965      -2.96490753       0.91671841      -2.04091594      -1.56189141       0.20508063      -0.27459977
W        3.19083675       3.14455597       3.04976136       6.06213679       2.34395558      -1.21624913       0.40296275       0.48522291       0.19074589
W        4.75225538       4.67391922       4.89488276      -0.06198389      -1.34175199      -3.57258319       0.27823738       0.65980527      -0.39837736
16
Lattice="6.376 0.0 0.0 0.0 6.376 0.0 0.0 0.0 6.376" Properties=species:S:1:pos:R:3:momenta:R:3:forces:R:3 Temperature=510.50494135833264 Step=159500 energy=-203.05426628382588 free_energy=-203.05426628382588 stress="-0.013018628519289185 -0.0002239603005849394 0.0001391808017126718 -0.0002239603005849394 -0.009564956888900536 0.0004558365504042848 0.0001391808017126718 0.0004558365504042848 -0.014719591729892586" pbc="T T T"
W       -0.02005366      -0.01959854      -0.18228453       0.95849467       5.07475962      -2.65378716       0.30249672       0.20968452       1.11707550
W        1.60264492       1.58669136       1.70372333      -1.34060816      -1.75724385      -1.70628288      -0.25555834      -0.19567969      -0.62824508
W       -0.05396544       0.02247200       3.29994865      -5.84787820       1.42916855       0.41538204       0.21575246      -0.03466873      -0.77803862
W        1.76176687       1.60707821       4.69814629       3.70782879       3.13931975      -0.39633260      -1.22773641       0.25377962       0.36210153
W        0.01069404       3.08790121      -0.01509474       4.80675218      -1.69802301       4.22244288       0.24574261       0.47753568       0.06015806
W        1.49981374       4.80532979       1.63719617       1.86019407      -2.90333904       0.66917551       0.44175646       0.00200186      -0.41072664
W       -0.02098766       3.26354660       3.10182366      -4.13156947      -0.84460116      -1.53955237       0.01049463      -0.53889928       0.72008887
W        1.66343537       4.74614361       4.73697120      -1.37246602       2.16235883      -2.04848192      -0.80171643       0.00551885       0.47873374
W        3.02215055      -0.01757160      -0.06825367       2.66576231      -0.57010660       2.79862695       1.08145235       0.02623231       0.96190860
W        4.82115017       1.51758940       1.52956847      -4.27403428      -3.85059402      -6.42077418      -0.16022924       0.27986422       0.45437377
W        3.19404591       0.00582218       3.20913259      -0.43325911       0.49911223      -2.48378800       0.29626500      -0.03080730      -0.51564057
W        4.79559138       1.68521928       4.81787596       4.78832705      -0.49976349       5.22585748      -0.21844025      -0.52414878      -0.27444738
W        3.15895702       3.07807958       0.10792868       2.07292021      -0.28588425       0.70394111       0.07154999       0.79603644      -0.01035805
W        4.90249582       4.76178722       1.55760875      -2.57896687      -1.07447393       3.97837547      -0.93028699       0.42646573      -0.17577119
W        3.23584368       3.32755548       3.27396241       2.40984158      -1.15512652      -0.90622642       0.14027766      -0.93670044      -1.37621044
W        4.68241728       4.79795419       4.84774670      -3.29133874       2.33443689       0.14142409       0.78817978      -0.21621501       0.01499790
16
Lattice="6.376 0.0 0.0 0.0 6.376 0.0 0.0 0.0 6.376" Properties=species:S:1:pos:R:3:momenta:R:3:forces:R:3 Temperature=423.6722522614689 Step=164500 energy=-203.19359518634954 free_energy=-203.19359518634954 stress="-0.011995436456896246 8.343377631000021e-05 -0.000331706776500293 8.343377631000021e-05 -0.009091762992350124 -0.00023053419529004836 -0.000331706776500293 -0.00023053419529004836 -0.011506678435145974" pbc="T T T"
W        0.07686801       0.08501131       0.00717318      -1.97276565       1.58990265       1.58219322      -0.27076597      -0.80570744      -0.26408473
W        1.65830611       1.58810078       1.59985844       2.82852716       3.24251946       1.49893301      -0.69989624      -0.08180826      -0.01186512
W       -0.07893711       0.02360199       3.24926654       2.33535184       0.51241008       3.76283385       0.51289753      -0.41989875      -0.00214449
W        1.58900986       1.60970609       4.69130674      -5.79361143      -4.89338966       2.41171336      -0.06556799       0.11935107       0.49003434
W        0.01469269       3.15874136       0.01184787      -0.00565679      -1.42810307       2.23081475       0.11394335       0.51925740      -0.27340408
W        1.53085088       4.75263357       1.69583348       1.06050470      -0.27449760       0.30726684       0.24342073       0.26200181      -0.80799120
W       -0.08514045       3.07003793       3.17179152      -2.05913382      -1.21604829      -4.29519774       0.44166996       1.06221988       0.44913127
W        1.77675802       4.78103327       4.68639225      -0.13022802      -3.52721858      -0.25636809      -1.74567198      -0.31008491       0.60890358
W        3.14597140       0.06766282      -0.06140695      -1.24266604       2.73611795       1.78883919       0.07185249      -0.89080675       0.87145124
W        4.87747419       1.58336704       1.61753288      -1.24949198       0.45108179      -2.93172012      -0.64878755      -0.11118836      -0.51732155
W        3.18714653      -0.04620400       3.20403929       4.90410486       0.29710465      -7.41610083       0.18356305       0.22278244      -0.47238653
W        4.60311661       1.59961291       4.89128245       0.49343933      -1.30051050       1.90119773       1.34183712       0.13720576      -0.60480208
W        3.14913170       3.18755685      -0.00458697      -3.91015101       1.26948069      -0.71240371       0.15623769       0.48791762       0.26923165
W        4.83870975       4.83357032       1.59946320       2.00291133       0.19292854       3.69860984      -0.11340303      -0.26548558      -0.32227587
W        3.22458446       3.16236735       3.07302599       1.16549435       1.32868545       0.31863545      -0.00884074       0.30380117       0.56603447
W        4.74745733       4.79920037       4.82318001       1.57337119       1.01953644      -3.88924676       0.48751156      -0.22955707       0.02148911
16
Lattice="6.376 0.0 0.0 0.0 6.376 0.0 0.0 0.0 6.376" Properties=species:S:1:pos:R:3:momenta:R:3:forces:R:3 Temperature=414.4212221489644 Step=169500 energy=-203.1706969961059 free_energy=-203.1706969961059 stress="-0.010761760993942673 0.00026784146877303677 0.00035059902926374035 0.00026784146877303677 -0.00552905675073918 -0.0013523270557087165 0.00035059902926374035 -0.0013523270557087165 -0.011579613449911973" pbc="T T T"
W        0.07776196       0.04948645      -0.04585058       0.95110044      -2.53183939      -1.59535347      -0.25200540      -0.43212388       0.01045636
W        1.49951422       1.62967690       1.66504915       2.57588534      -0.27252341      -2.77507145       0.62997330      -0.33575550      -0.20638048
W       -0.07542906       0.03490698       3.10118777      -4.38231165       1.04239813      -2.63365235       0.63578685      -0.40872831       0.94609639
W        1.79415965       1.67151223       4.75359758      -1.97339559       1.44732449       3.30205286      -1.36673591      -0.50259787      -0.11138015
W       -0.07383142       3.14576891      -0.01837088       3.36860282       1.40951812      -1.41694361       0.94510832       0.53058313      -0.14677513
W        1.54638100       4.75918502       1.71421475      -4.78046661      -1.73673192       1.66787852      -0.04370597       0.20845197      -0.77832521
W       -0.03605669       3.13261643       3.25084752      -0.29778674       3.66606608      -2.21223024       0.04543455       0.65950482      -0.24697719
W        1.63515644       4.86803806       4.67709933       0.54847091       3.88906759       3.71080951      -0.33127503      -0.67785556       0.75074171
W        3.08660869       0.00963512       0.04861536       0.45398025       0.69877796       3.57990808       0.39830475      -0.28991564      -0.04394307
W        4.76917417       1.62002451       1.53898714       1.93555261      -0.73076276      -1.02367018       0.11216153      -0.45915613       0.05186845
W        3.31687111      -0.05773747       3.25689324      -1.77724289      -2.57885296      -3.98513058      -0.82956236       0.32076715      -0.81296260
W        4.82412402       1.54022277       4.78597627       4.96550214      -1.12603450       5.86105167      -0.31444381       0.32088529       0.28553857
W        3.11411775       3.12443591       0.06699014       0.34999306      -2.06831514      -2.05516968       0.05390345       0.77238738      -0.48248975
W        4.79729409       4.77927575       1.51863975      -4.20683748      -1.41939409       2.76332728       0.01347810       0.03686194       0.21396385
W        3.25973728       3.17642121       3.07101922      -0.39892122       0.00895991      -0.61757568      -0.19605727       0.24662370       0.95352832
W        4.72041678       4.77253117       4.87110415       2.66787463       0.30234190      -2.57023066       0.49963488       0.01006751      -0.38296010
16
Lattice="6.376 0.0 0.0 0.0 6.376 0.0 0.0 0.0 6.376" Properties=species:S:1:pos:R:3:momenta:R:3:forces:R:3 Temperature=434.1905611927583 Step=174500 energy=-203.02938478748462 free_energy=-203.02938478748462 stress="-0.014950204184519346 -0.000502928779494702 0.0007101690338583095 -0.000502928779494702 -0.007985905856238908 0.00028639970142549636 0.0007101690338583095 0.00028639970142549636 -0.011423590222401943" pbc="T T T"
W        0.07646792      -0.07827008       0.09424177       2.02952033      -3.37231015      -1.87987559      -0.20798675       0.62858566      -0.84310802
W        1.55547485       1.73965539       1.62506079      -1.75371111      -0.11888735      -3.01576646       0.28207440      -1.32143576       0.29321231
W       -0.12633248       0.02674207       3.25222357      -1.10892829      -3.84116983      -2.47941444       0.79379875      -0.00139845      -0.38081100
W        1.65568784       1.54568826       4.81678731      -2.04120214      -3.41458114       6.82944399      -0.43065978       0.35592435      -0.67578484
W        0.12900145       3.15964731      -0.10081454      -2.32849596       2.97414384      -2.01114444      -0.71503308       0.12419771       0.21305340
W        1.58073874       4.70436325       1.60876637       6.77508615      -0.05304302      -1.99674070      -0.09853478       0.56609587       0.33458925
W       -0.13570488       3.18256791       3.18247195       1.83598797      -1.75528629       2.03745539       0.68886894       0.02354893       0.43998160
W        1.59538938       4.80960348       4.64880325      -3.42835256      -1.89398998      -1.13025454       0.16171957      -0.19095394       0.68109700
W        3.06055982      -0.06820641      -0.01134558       0.89651992       0.19680848      -1.10888061       0.78142699       0.44990807       0.52605471
W        4.91989039       1.57813609       1.49434299      -3.08345459       4.29057602      -0.09008103      -1.08059696      -0.08171936       0.46310240
W        3.24295309       0.01370933       3.16677895       1.35699951       0.28658859       0.40274721      -0.37458282       0.13008960      -0.25725278
W        4.67604546       1.63660768       4.80240417       2.00739936       0.97440628       3.18393327       0.65565486      -0.44042784       0.20113310
W        3.20388451       3.14236810       0.12777716      -2.28514107      -1.06321744      -1.71115182      -0.16117914       0.40322570      -1.30990982
W        4.81975498       4.69191362       1.52677770       3.96048140       4.32402532       3.35453599      -0.08842886       0.75143849       0.36254606
W        3.19624015       3.24134496       3.15242809      -1.96144448       2.73963559      -1.70196609       0.29885928      -0.40237463       0.45677224
W        4.80594878       4.93012898       4.86929597      -0.87126445      -0.27369891       1.31715986      -0.50540062      -0.99470441      -0.50467562
16
Lattice="6.376 0.0 0.0 0.0 6.376 0.0 0.0 0.0 6.376" Properties=species:S:1:pos:R:3:momenta:R:3:forces:R:3 Temperature=503.0037924196926 Step=179500 energy=-203.0977052630327 free_energy=-203.0977052630327 stress="-0.013740365084386452 -0.0002125710517899596 -4.930088970931242e-05 -0.0002125710517899596 -0.009918514841193252 0.0006076269373274749 -4.930088970931242e-05 0.0006076269373274749 -0.010092661852131531" pbc="T T T"
W       -0.02267686      -0.04722982      -0.06770149      -1.26049440      -2.21541347       2.95073036       0.34078812       0.46607714       0.55697929
W        1.51792632       1.64802887       1.47786672       3.04914200       0.72774386      -3.26694542       0.36231327      -0.50523003       1.26890169
W       -0.02553342      -0.10656897       3.23478501      -4.45569203       0.79625306       0.92428720       0.09745727       0.94914087      -0.67527938
W        1.59545052       1.48671568       4.65387632       1.38229038      -0.22135312       4.39741191       0.12962599       0.73969460       0.68531053
W        0.06103013       3.21638590       0.01266385       0.26771863       0.07514906      -7.37102126      -0.37090869      -0.32158029      -0.54204370
W        1.55688639       4.74451807       1.61422324      -0.34605702       4.89361664       1.84139831       0.17734568       0.49980985       0.32147309
W       -0.04496234       3.19759275       3.32132070       0.73274154      -0.68470205       1.66444237       0.38113544      -0.52450804      -0.73735384
W        1.67475695       4.83718160       4.75056353       2.72007608       1.56625290       1.61767004      -0.17171279      -0.32175662      -0.14227012
W        3.14664759       0.08735483       0.07629644      -1.89007974       1.44832975      -5.41377247       0.17095868      -0.33971820      -0.25844424
W        4.86659505       1.67879887       1.57914201       0.79676935      -4.34981272       0.59426365      -0.58042152      -0.41194063       0.10836133
W        3.31473676      -0.02564034       3.16742678       3.18687189      -1.28466253      -0.89035288      -0.69686034       0.40988112      -0.39198481
W        4.70359047       1.50501741       4.89721220       0.22049015       2.67912511      -3.43571855       0.37107319       0.82795539      -0.60226656
W        3.04287417       3.34251633       0.07686578       1.14933724      -2.93242485       3.19388701       0.97980434      -1.35103810      -0.72620389
W        4.79446057       4.75248529       1.50297593      -6.67372564       0.70923278       3.31045227       0.00502666       0.10917791       0.75105672
W        3.23971129       3.14803787       3.20352266      -3.65512000      -2.38063042       0.24388994      -0.32884263       0.04120164      -0.12460215
W        4.83450640       4.79080563       4.75496022       4.77573157       1.17329600      -0.36062245      -0.86678266      -0.26716660       0.50836603
16
Lattice="6.376 0.0 0.0 0.0 6.376 0.0 0.0 0.0 6.376" Properties=species:S:1:pos:R:3:momenta:R:3:forces:R:3 Temperature=395.34503479155296 Step=184500 energy=-202.96229852129525 free_energy=-202.96229852129525 stress="-0.013733632876060399 -0.000600180404733654 0.0015804048209161366 -0.000600180404733654 -0.012575831480962812 -0.0008463897322901426 0.0015804048209161366 -0.0008463897322901426 -0.01074666117096359" pbc="T T T"
W       -0.04645642       0.05801134      -0.00139377      -1.71176869       1.88578632       2.66742999       0.30399736      -0.82415292       0.39544098