16
Lattice="6.376 0.0 0.0 0.0 6.376 0.0 0.0 0.0 6.376" Properties=species:S:1:pos:R:3:momenta:R:3:forces:R:3 Temperature=482.56141186901374 Step=10000 energy=-203.3294388951705 free_energy=-203.3294388951705 stress="-0.010978472796128708 -0.0004927680535849781 -9.760114162003267e-05 -0.0004927680535849781 -0.008681610014204134 -0.0002582496054887593 -9.760114162003267e-05 -0.0002582496054887593 -0.008864211765454643" pbc="T T T"
W        0.04243206       0.12641249      -0.01966889      -2.93490326       1.87052477      -0.47158092      -0.23155918      -1.44945763       0.30114569
W        1.71425902       1.55049556       1.59069200       1.10350921      -1.43522427       0.15221855      -1.10904239       0.58460034       0.04947382
W        0.04006296      -0.06770368       3.17587855      -2.71552765      -0.47909248      -3.00669613      -0.09181042       0.33215755      -0.09241729
W        1.54120680       1.60458856       4.83695099       8.42126643       2.70680067       1.86516105       0.44458866       0.15349935      -0.41190123
W       -0.14825481       3.14366863       0.02503671       0.29922617       3.90253730       1.63119278       1.19482672       0.59196335      -0.03371836
W        1.61806841       4.72080129       1.58981316       1.74179428      -3.70201723      -0.20279600      -0.26195663       0.27202669      -0.17869781
W       -0.03644560       3.12244344       3.25398219      -0.65771032       2.79155704       1.05391032       0.09685267       0.39426580      -0.55637023
W        1.63806717       4.74017400       4.73612215      -0.57450162      -1.50040776      -1.89982180      -0.62105246       0.33168824       0.54889204
W        3.15119666       0.05524006      -0.04761508      -7.47525137      -6.46760548       2.05900077       0.45044772      -0.64241602       0.31326602
W        4.78946968       1.56020025       1.56624296       4.22971223       0.68612096      -0.60624409      -0.01742441       0.04980995       0.54249816
W        3.14336584       0.10604316       3.16289635      -2.47690576       2.16162619      -1.98821489       0.34442223      -1.04352581       0.13270216
W        4.81343704       1.55830381       4.80837085       1.80399294       0.04658011       0.21831045      -0.48080399       0.28177151      -0.48747922
W        3.25330714       3.22161528       0.02545613      -1.07240802       1.64844819       1.60468372      -0.44051276       0.01848636      -0.29185793
W        4.81030631       4.71607849       1.58665082       1.42466193      -3.36414938      -3.88276691      -0.21774945       0.77752499       0.15201888
W        3.08773071       3.24717764       3.20792848      -2.89783156      -0.18754993       3.93542380       0.98731037      -0.32721009      -0.01893133
W        4.79779061       4.85046099       4.75726258       1.78087637       1.32185130      -0.46178070      -0.04653669      -0.32518457       0.03137663
16
Lattice="6.376 0.0 0.0 0.0 6.376 0.0 0.0 0.0 6.376" Properties=species:S:1:pos:R:3:momenta:R:3:forces:R:3 Temperature=597.8115308361776 Step=171000 energy=-202.7590604402185 free_energy=-202.7590604402185 stress="-0.014523614893362631 -7.15917535065167e-06 -0.0011674017943444667 -7.15917535065167e-06 -0.012447339401172845 0.00038633552054461893 -0.0011674017943444667 0.00038633552054461893 -0.01754862086516724" pbc="T T T"
W        0.02486980       0.15678304       0.10208074       4.21646282      -0.54801428      -2.97648293      -0.26411029      -1.11357422      -1.10982857
W        1.71772453       1.44384999       1.63260899      -5.63077397      -0.60116821      -1.58468311      -0.94391715       0.81323814      -0.29599979
W        0.09082686       0.01299583       3.17263642       3.65880400      -0.25726434       0.62363002      -1.14955306      -0.35003809       0.39086020
W        1.60619985       1.57476737       4.68290913      -0.71828165      -0.92163171      -4.51482870      -0.13855510      -0.02346576       0.86669763
W        0.01498890       3.16925257       0.09822564      -4.66462071       0.49243237       0.10510335      -0.32641324       0.08911798      -0.85150964
W        1.58286493       4.65492892       1.67383207       2.13347347      -1.76723179       2.15478162       0.07025206       1.28928825      -1.06890622
W        0.03629143       3.18200617       3.22074683      -3.54629703      -2.41868799       0.96004226      -0.62484433       0.04319755      -0.04146568
W        1.50177517       4.76180380       4.65012148       2.53601602      -2.30551451      -1.35631603       0.48886109       0.38221160       1.55136410
W        3.23469002       0.10547839      -0.06531906       9.10067173      -5.24376530       0.76284055      -0.27887836      -1.09050762       0.12851456
W        4.74396308       1.65280096       1.70263389      -3.61845692       1.68885821       3.31537876       0.57029027      -0.34066329      -1.18621894
W        3.26327168      -0.02273154       3.13276855       2.07157216       3.08609716       0.47411650       0.12801794      -0.65200492       0.56948835
W        4.72603009       1.64477345       4.69342154      -2.28471474       0.61672675       3.56106670       0.44424033      -0.06718741       1.14560399
W        2.98208565       3.19899163       0.08937837      -4.95966224       2.98542824       3.23486318       1.46825151       0.13445684      -1.14174188
W        4.85180757       4.79399691       1.50260395      -1.49970339       3.84574664      -0.44833122      -0.43944965      -0.03481797       0.34892084
W        3.17476803       3.13617265       3.13368272       3.26524057      -3.25475469      -4.04024237       0.33700868       0.91205373       0.72547079
W        4.70384242       4.79012979       4.83366864      -0.05973012       4.60274344      -0.27093858       0.65879930       0.00869520      -0.03124975
16
Lattice="6.376 0.0 0.0 0.0 6.376 0.0 0.0 0.0 6.376" Properties=species:S:1:pos:R:3:momenta:R:3:forces:R:3 Temperature=493.9421113060949 Step=0 energy=-203.18361884485964 free_energy=-203.18361884485964 stress="-0.010705438619643213 0.000562163605657957 0.0002267591279338693 0.000562163605657957 -0.01134830515940324 0.00032061004445507974 0.0002267591279338693 0.00032061004445507974 -0.010279012496824225" pbc="T T T"
W       -0.13692332       0.01585653      -0.00085521      -0.04777648       1.87552655      -4.83304299       1.13807276      -0.17782203       0.01364139
W        1.71210517       1.51957759       1.58556201      -2.59591625       2.02634284       0.97926729      -0.91830802       0.38293911       0.15046770
W       -0.12354345      -0.04566983       3.14894185       0.23521692       3.23417557       0.22476907       1.27508106       0.29821307       0.18118728
W        1.68207191       1.57189587       4.81570126       4.16112152       1.62323677      -0.65323869      -1.05017769       0.01161818      -0.24384139
W       -0.05956343       3.07072504       0.03537061       0.83563702       0.88513779      -0.49305098       0.80660757       1.05603550       0.02395090
W        1.72045528       4.80103443       1.55587930      -2.66021650       0.49650990       0.93982530      -1.29923170      -0.16941188      -0.02944322
W       -0.02082248       3.20701141       3.22862183      -0.10883813      -6.08353124       0.56613483       0.78065136      -0.10800818      -0.45126745
W        1.53986177       4.80317804       4.77810107       0.18200515       5.20841148      -2.37672301       0.25160036      -0.10105541       0.21981553
W        3.22690037       0.07179522      -0.08207626      -2.27418080      -6.88059507       1.80869797      -0.10916879      -0.54792040       0.40155772
W        4.87952330       1.62529109       1.70461541       4.24008025      -0.91234957      -3.05004000      -0.90681168      -0.09597418      -0.70963064
W        3.13456987      -0.02677138       3.13932172      -0.83751259       2.04606560       2.45184441       0.36639608       0.04082441       0.48980409
W        4.80709171       1.69686716       4.79081651      -1.59106698       3.15814159       0.90738170      -0.10437094      -0.61382930      -0.12948514
W        3.14229394       3.21058521       0.05492342       3.73934131      -4.60832521      -0.65466850       0.34495206      -0.05407301      -0.50671905
W        4.73799754       4.77972534       1.55345766      -5.29276232      -1.93634357       3.51761438       0.33510731      -0.16874591       0.17298000
W        3.13903751       3.14260529       3.23488530      -0.05360983      -4.09346857       1.05236676       0.07097156       0.63190842      -0.19513092
W        4.87494431       4.81229296       4.71273347       2.06847771       3.96106514      -0.38713753      -0.98137130      -0.38469839       0.61211321
16
Lattice="6.376 0.0 0.0 0.0 6.376 0.0 0.0 0.0 6.376" Properties=species:S:1:pos:R:3:momenta:R:3:forces:R:3 Temperature=559.0419292661235 Step=160000 energy=-203.28838411570862 free_energy=-203.28838411570862 stress="-0.009711475413134527 0.00023559575577941495 0.0009344659561566175 0.00023559575577941495 -0.010819352297206323 -5.8422402409289997e-05 0.0009344659561566175 -5.8422402409289997e-05 -0.00820628813597104" pbc="T T T"
W       -0.09353346       0.10382661      -0.00049307      -2.61406971       0.28039144       2.80167923       0.96801398      -0.82180734      -0.06852733
W        1.58386762       1.54613757       1.56612521       6.76282020       3.33624866      -0.84224976       0.30535084       0.14509621       0.45773090
W       -0.00578796       0.01968837       3.34473970      -2.11617015      -3.10849140       3.60962649      -0.17740974       0.06721675      -0.93253133
W        1.71040769       1.69680601       4.72813376      -4.72158449       2.08720995      -3.69422495      -0.58074934      -0.91898555       0.02836458
W        0.07118612       3.08980394       0.05417541       6.45246358      -0.85611441      -0.91359098      -0.26964126       0.83255313      -0.24212733
W        1.58351558       4.87861112       1.63981563      -4.55314361       0.70295248      -2.62227881      -0.33610038      -0.51158664      -0.25846312
W       -0.01926744       3.18210649       3.24228974      -0.35571691      -3.97722277      -6.34931827       0.11814537      -0.11434585      -0.52465967
W        1.49559824       4.74955538       4.69830449      -0.54701427      -0.64179244       0.46817552       0.83267085       0.44464485       0.62074919
W        3.14787335      -0.03281218       0.01902933       3.37683244       0.52746759       3.46148737       0.03339800       0.03829145      -0.43503756
W        4.80822788       1.57265315       1.49168836       4.29448267       0.33908935       1.59488107      -0.45726520       0.03018747       0.94018710
W        3.26537850      -0.07571677       3.15476062      -3.72942957      -0.79922642       1.21882452      -0.29203292       0.35748647       0.37817147
W        4.76140826       1.63222416       4.81813787       4.17401387       3.80688034       0.70819549      -0.14443642      -0.10275607      -0.36015651
W        3.12652487       3.21094966      -0.05450770      -2.42318646      -0.87461449      -2.84943103       0.21808659       0.06748562       0.48038832
W        4.78291073       4.74796018       1.60329007      -1.05277086       0.92434983       3.51288468       0.28529301       0.30272199      -0.02341515
W        3.19481567       3.19811815       3.04682524       0.11850552      -3.91376945       1.54540312       0.10156123       0.09546729       0.69973181
W        4.84287436       4.73608815       4.90368532      -3.06603225       2.16664174      -1.65006371      -0.60488461       0.08833022      -0.76040535
16
Lattice="6.376 0.0 0.0 0.0 6.376 0.0 0.0 0.0 6.376" Properties=species:S:1:pos:R:3:momenta:R:3:forces:R:3 Temperature=463.4283639751631 Step=131000 energy=-202.7877982026784 free_energy=-202.7877982026784 stress="-0.01755020879675393 0.0013880734124496453 -0.0010272436631802533 0.0013880734124496453 -0.02189255346689666 -0.0006560598155521243 -0.0010272436631802533 -0.0006560598155521243 -0.017400869803164815" pbc="T T T"
W        0.18718470       0.07791173      -0.00276611      -0.18321802      -3.50134991      -3.21748911      -1.33423975      -0.79453151       0.31881400
W        1.51559068       1.55762382       1.55610632       1.10828199       3.76181634      -1.26808758       0.53918718       0.64568925       0.67732599
W       -0.07017918      -0.00838624       3.26362443      -3.33540297       0.31627298       1.02569391       1.01172851      -0.42076756      -1.17338720
W        1.61264249       1.55279927       4.71793234       0.14124140      -5.25239907       3.45919542       0.11614833       0.57261632       0.19621533
W       -0.04052804       3.19120402       0.06540650      -0.73417746      -1.64544018       2.07918134       0.49475367       0.22464002      -0.58228994
W        1.60736257       4.76174753       1.51829382       4.03113221       1.04417968      -1.81709064      -0.49714004      -0.17812020       0.64276474
W       -0.21574746       3.23238241       3.34202485      -5.92288367       4.52095630      -2.17956765       1.85078568       0.00919561      -1.09657970
W        1.71026835       4.84485489       4.77176725       0.57729783       3.89596104      -1.71341319      -0.90558916      -0.75899233       0.17556419
W        3.26671714       0.06291667      -0.01931072       6.22300810      -1.83112565      -5.58201061      -0.38773275      -0.12322835       0.37789322
W        4.82641011       1.68068348       1.60590223      -0.55358563      -1.77954532       0.59602817      -0.34458654      -0.79219476      -0.04648498
W        3.21912955      -0.13998780       3.18487704      -2.31595959      -0.64774019       0.51915823      -0.54503140       1.43434434      -0.58586941
W        4.90234765       1.47850495       4.72943717       3.01723643      -0.95593616       0.73688162      -1.18594285       1.17184145       0.68944948
W        3.19365783       3.17292413      -0.00868509      -0.76358604      -1.49017968      -0.38394058      -0.17111367      -0.24462232      -0.29992726
W        4.64017062       4.70788553       1.62756353       0.13246582       1.70310226       2.87410832       1.31534777       0.71371601      -0.71939546
W        3.13900213       3.19784273       3.12061527      -1.03716029       4.34014035       0.42209915      -0.10514013      -0.51280751       0.64295156
W        4.76197087       4.88509283       4.78321107      -0.38469011      -2.47871280       4.44925319       0.14856515      -0.94677848       0.78295545
16
Lattice="6.376 0.0 0.0 0.0 6.376 0.0 0.0 0.0 6.376" Properties=species:S:1:pos:R:3:momenta:R:3:forces:R:3 Temperature=479.9419046003035 Step=11000 energy=-202.88119152075066 free_energy=-202.88119152075066 stress="-0.01784205634853932 0.00011583366014578648 0.0017818833681427185 0.00011583366014578648 -0.012855607903879098 -6.592054030066984e-05 0.0017818833681427185 -6.592054030066984e-05 -0.014209009015917708" pbc="T T T"
W       -0.11673267      -0.00364222      -0.00664522       2.92050935       5.51862521      -2.04882637       0.83352605      -0.20693498      -0.41156561
W        1.45274432       1.54869722       1.60198273       0.07687816       1.23315849       1.47749726       0.50415157       0.56561977      -0.46445123
W       -0.09053495      -0.02026244       3.10664149       1.42174809      -1.98271698       0.46627658       0.62260067      -0.33992394       0.91349404
W        1.59511101       1.58535274       4.80863777       1.13992981      -0.08600321       0.62204598      -0.35066644      -0.37261938       0.24625138
W        0.08901431       3.28887061       0.04325053       2.72042565      -1.12601276      -3.79309517      -0.63325979      -0.50735643      -0.88768615
W        1.70849240       4.78520674       1.61615742       1.54427660      -1.30861002       6.35086184      -1.09150279      -0.22694153      -0.33858471
W        0.06343275       3.16851734       3.27845021       0.94131260       3.06942523       1.67428558      -0.16686172       0.56678394       0.00171690
W        1.75217707       4.83324408       4.81476338      -0.94416373      -1.11652400       0.70316174      -0.83876893       0.07000294       0.02187906
W        3.36660806      -0.00476199       0.15833929      -1.22224867       4.60628903      -3.49671953      -1.23346995       0.36321289      -1.34621931
W        4.86934643       1.64162376       1.66868822      -4.06962578      -5.28385455      -0.15671791      -0.28343994       0.28223709      -0.73678550
W        3.06755616       0.11177293       2.99090815       0.32240923      -3.24730859       5.11310435       0.86470592      -0.85012058       1.46540203
W        4.68211151       1.54605638       4.65488822       0.96709952       3.28796656       0.28639271       0.91122184       0.45164845       1.11570865
W        3.15723505       3.13144306       0.02851596       0.72507467       1.19710653       2.49346820       0.45264001       0.16331657      -0.25352245
W        4.75964991       4.75174211       1.54154691      -2.95692625      -0.69575767      -2.05793832       0.47273679      -0.42792227       0.64176180
W        3.15519212       3.10706146       3.23455379      -5.11171317      -3.71598879      -5.51167358      -0.11437592       0.58451510      -0.22744365
W        4.74459653       4.78507818       4.71532106       1.52501391      -0.34979448      -2.12212337       0.05076262      -0.11551765       0.26004478
16
Lattice="6.376 0.0 0.0 0.0 6.376 0.0 0.0 0.0 6.376" Properties=species:S:1:pos:R:3:momenta:R:3:forces:R:3 Temperature=458.90032349176636 Step=150000 energy=-202.6853640382566 free_energy=-202.6853640382566 stress="-0.020963645741748704 0.0008999295411158665 0.0008202350110927093 0.0008999295411158665 -0.01371423369630114 -0.0006668965415896991 0.0008202350110927093 -0.0006668965415896991 -0.015070280674458017" pbc="T T T"
W        0.01956105       0.07977433      -0.01092790      -0.35585182       4.21784399      -4.60588228       0.32611554      -0.13965997       0.00894658
W        1.72230137       1.62297545       1.55778548       1.84571424      -1.52814137       0.11283362      -1.19736990      -0.01063813       0.16644683
W        0.02700640      -0.06090622       3.38419168      -3.52601621      -0.59862075      -1.93591766      -0.33039199       1.00346640      -1.35281660
W        1.73942618       1.65746361       4.72565689      -0.55589847      -0.90940846       1.45573056      -0.75558941      -0.12409172       0.50184821
W        0.00406444       3.24453087       0.01037560       2.43444076       0.11228203      -4.30369216      -0.14890175      -0.47851366      -0.41542205
W        1.45481175       4.75631586       1.56065167       1.96636092      -0.21402684      -2.88248134       0.56476576      -0.29837034       0.29951147
W       -0.12361394       3.11944648       3.20999137       1.51197230      -1.50687507       0.03521869       0.87606013       0.25452993       0.02086301
W        1.59705282       4.84472517       4.71618316      -1.69325658       0.10343658      -3.21814009      -0.33598099      -1.18123634       0.72960365
W        3.23883483      -0.15238290       0.10575102      -1.54305214      -0.03043437       3.56292048      -0.79390478       1.36202473      -0.61691376
W        4.80088025       1.51279208       1.53442533       0.31019137       1.22680210      -2.60693865       0.26549755       0.48282122       0.55965294
W        2.96817078      -0.09287216       3.12560250       3.58043956      -4.02929350       6.36644682       1.73661114       0.69495457       0.11272841
W        4.79588304       1.61505388       4.76156600       4.30604753       5.90192442       3.67882274      -0.50176323      -0.33581348       0.21934485
W        3.20661858       3.21114290      -0.04475419       2.33675532      -0.54762712       1.64458479       0.21224857      -0.11943248       0.70069945
W        4.93727315       4.90198051       1.62436894      -2.28693984       1.56340672       1.42887235      -0.90316222      -0.99628575       0.06606259
W        3.27417180       3.13646447       3.15164113      -2.19841037      -2.55587253       0.17313900      -0.54262501       0.45952995      -0.38743600
W        4.59355750       4.85949567       4.84349130      -6.13249659      -1.20539584       1.09448313       1.52839059      -0.57328492      -0.61311959
16
Lattice="6.376 0.0 0.0 0.0 6.376 0.0 0.0 0.0 6.376" Properties=species:S:1:pos:R:3:momenta:R:3:forces:R:3 Temperature=520.6554938659991 Step=116000 energy=-202.659573114591 free_energy=-202.659573114591 stress="-0.013742712426884256 -0.0012440501469664204 0.0018921073828853936 -0.0012440501469664204 -0.02152108032760871 -0.00022742030374025765 0.0018921073828853936 -0.00022742030374025765 -0.021824379895862774" pbc="T T T"
W       -0.18814351      -0.13686144      -0.04988020      -3.42555084      -1.72214239      -2.11943189       2.21702158       1.56338638      -0.22345506
W        1.74858576       1.58835056       1.59490816      -1.01532142       6.41686494       6.77166056      -1.58233413       0.30946811       0.07818736
W        0.00522271       0.06070525       3.07522470      -1.62968309      -3.67741734      -0.99641918       0.14918853      -0.13155728       1.00933741
W        1.58695058       1.56805827       4.84237680       3.37534386       1.69338350       1.36475284      -0.18341847       0.23359101      -0.38521977
W       -0.02396398       3.21531974      -0.06114706       0.33441556      -1.04119614      -2.30392215       0.26838041      -0.16981875       0.70546427
W        1.66745046       4.75085780       1.68203506      -4.65017240      -1.07226031       0.07422131      -0.82384711      -0.22632840      -0.55473565
W        0.05250025       3.17875056       3.24743574       4.12649626      -3.49496852      -3.79101370      -0.41699037      -0.06194853      -0.69611425
W        1.64476214       4.73100052       4.65284112      -1.62174201      -2.73738818       1.49824791      -0.54672673       0.07815539       0.78491598
W        2.95141000      -0.02248038       0.04756073       1.54410268       1.69078608      -0.35361866       1.35819848      -0.04860113      -0.78926750
W        4.83618469       1.53799297       1.60248415       0.06292807      -2.55115688       1.99862272      -0.24078192       0.86665501      -0.27197270
W        3.17300494      -0.03973216       3.15590318      -2.12803355       0.55850622      -1.22241502       0.30187373       0.64310886       0.62838530
W        4.74393586       1.66366188       4.88026541       6.10459150       3.60532914      -4.19668990       0.18531994      -0.67954435      -0.43192246
W        3.14398132       3.21699315       0.06017806      -2.17055925      -2.23480956       0.13665800       0.48456203      -0.02205965      -0.34219023
W        4.80858016       5.01316715       1.50797061       1.12010368       0.83552701      -1.76524568      -0.50336128      -2.53672490       1.26937740
W        3.27977667       3.10407367       3.26685567       0.14689110      -2.10538096      -0.25393937      -0.00925113       0.52430434      -0.55479199
W        4.82576197       4.82614242       4.75098778      -0.17381014       5.83632340       5.15853220      -0.65783356      -0.34208610      -0.22599813
16
Lattice="6.376 0.0 0.0 0.0 6.376 0.0 0.0 0.0 6.376" Properties=species:S:1:pos:R:3:momenta:R:3:forces:R:3 Temperature=540.4958824645992 Step=240000 energy=-202.7951613008775 free_energy=-202.7951613008775 stress="-0.015076081693592076 0.00020177262747318714 -0.00010281230410834176 0.00020177262747318714 -0.015564850660437135 0.00088664102594867 -0.00010281230410834176 0.00088664102594867 -0.016421657109956533" pbc="T T T"
W        0.05363209       0.13522143      -0.15615782      -2.05023437       5.55327326       0.21384072      -0.45979772      -1.54816991       0.95848234
W        1.52073086       1.65972532       1.65354741       3.94510538      -3.83067807       2.54581754       0.18598568      -0.06103462      -0.33704873
W        0.00884134      -0.00821142       3.16381823      -3.61179980      -0.44622302       2.91241354       0.03470451      -0.00708519       0.45766544
W        1.58917138       1.61326377       4.88654905      -3.90908475      -4.79909619       2.53061374       0.48311048       0.33089065      -0.88941290
W        0.00574057       3.18639825      -0.05573048       1.01468871       4.80894582       0.52656003      -0.28171357       0.41869812       0.75529908
W        1.61962099       4.87792789       1.55737732       0.55141291       4.27310804      -2.53745932      -0.40302380      -0.83250687       0.42988381
W        0.01905703       3.26172363       3.41336090      -3.56908312      -3.77654891      -5.39077296      -0.42890574      -0.59526464      -1.81277494
W        1.58132862       4.65413633       4.84344762      -1.17854882      -1.61508373       1.96147647       0.62936676       0.78408160      -0.70256752
W        3.17785222      -0.04903639      -0.05710564       2.71859087      -2.38879275       1.62909128      -0.18657321       0.27081544       0.63351823
W        4.78394116       1.47438966       1.58541670       0.89497721      -1.17553481       0.09375030       0.54970994       0.77506074       0.22317058
W        3.10748692       0.10667136       3.11431927       1.98890993      -0.99322875      -0.22622315       0.17860109      -1.18962582       0.28866502
W        4.69492157       1.48945783       4.83234795       2.17854065      -0.50489191       4.25504852       0.41459177       0.80251274      -0.66311598
W        3.32310790       3.20164871       0.14447227       1.32371214      -1.14837907       1.84646792      -0.81242665      -0.20453137      -0.66162160
W        4.82515082       4.83622180       1.54458689       3.93402875      -2.05545721      -2.77664767       0.15633880      -0.17694989       0.43014437
W        3.27386993       3.05534385       3.05086236      -3.80550016       4.03232948      -2.51453685      -0.55731063       1.16930357       0.92185542
W        4.67154660       4.76111793       4.73488792      -0.42571553       4.06625780      -5.06944012       0.49734230       0.06380546      -0.03214261
16
Lattice="6.376 0.0 0.0 0.0 6.376 0.0 0.0 0.0 6.376" Properties=species:S:1:pos:R:3:momenta:R:3:forces:R:3 Temperature=634.8843160282072 Step=40000 energy=-202.86687017585464 free_energy=-202.86687017585464 stress="-0.011613163609548102 0.000595626994157571 -5.911424953560843e-05 0.000595626994157571 -0.01754777723915036 -0.0005153297016113622 -5.911424953560843e-05 -0.0005153297016113622 -0.013989067637751759" pbc="T T T"
W       -0.02625113       0.00637846      -0.04675846      -1.32070151       0.75328313      -4.05282284       0.31624661      -0.15416948       0.28474939
W        1.51375468       1.68032646       1.54592525      -2.20402032       0.56051950       0.19504910       0.69216293      -1.08915227       0.20873212
W        0.03168068       0.01953065       3.28246244       7.69457180      -3.51976381      -0.04658374       0.03511175       0.08078971      -0.51143177
W        1.59948088       1.71310617       4.74410146      -1.68753276       0.05886047       1.24766097      -0.19083909      -1.19379634       0.44321688
W       -0.12623314       3.12141616       0.00259981      -0.02587967      -0.90792285       5.61643172       0.65822018       0.58225520      -0.37431113
W        1.70701554       4.81058175       1.69369340       2.45661259       1.97057978      -3.97875665      -0.89215299       0.27947695      -0.63838502
W        0.03521105       3.19880230       3.10626941      -1.69211890       1.99342422       7.21462304      -0.40688647      -0.23050198       0.62798472
W        1.60359185       4.65086799       4.81405239      -7.34385211      -3.86503276       4.78033845      -0.00348679       1.29350097      -0.26382286
W        3.15966834      -0.10717772       0.12521647       6.53686412      -0.31649896      -1.34972072       0.16649436       0.84808369      -0.88054919
W        4.82188818       1.63826467       1.57450421      -1.24092015      -0.18887568      -3.84544131      -0.65881421      -0.86567171      -0.14330920
W        3.22342105       0.05984115       3.30603979       1.18579914       0.07326336      -2.08553286      -0.21136745      -0.75663839      -0.86217029
W        4.65280496       1.56096941       4.70786707      -2.82149722       1.65511454       0.23489498       0.74747387       0.24694672       0.84682371
W        3.02008498       3.26180782      -0.03594254       2.69276734       0.58322641       0.80945621       1.61764087      -0.60034437       0.54894638
W        4.96411810       4.77600104       1.58277509       1.27586738       2.06108991      -6.08070922      -1.21943252       0.56972112       0.20970695
W        3.19457413       3.11533016       3.08975591      -0.36175011       3.32399559      -0.99786174       0.30222923       0.82344196       0.42303551
W        4.88118985       4.74995350       4.76343824      -3.14420962      -4.23526284       2.33897461      -0.95260027       0.16605823       0.08078380
16
Lattice="6.376 0.0 0.0 0.0 6.376 0.0 0.0 0.0 6.376" Properties=species:S:1:pos:R:3:momenta:R:3:forces:R:3 Temperature=558.626286187615 Step=49500 energy=-202.81555504157024 free_energy=-202.81555504157024 stress="-0.012432722533147438 9.197576648670528e-05 -0.0010166659649607688 9.197576648670528e-05 -0.016308619125425805 0.0004138395960008058 -0.0010166659649607688 0.0004138395960008058 -0.017544228491576518" pbc="T T T"
W       -0.00124603       0.05956422      -0.12604450      -1.82191306      -2.61191620      -0.28961681      -0.06921962      -0.42267779       0.82759986
W        1.51186568       1.70702311       1.64294048       1.32719460      -1.28249544      -3.81167513       0.20453231      -0.88872919      -0.47436005