16
Lattice="6.376 0.0 0.0 0.0 6.376 0.0 0.0 0.0 6.376" Properties=species:S:1:pos:R:3:momenta:R:3:forces:R:3 energy=-207.22015007744255 free_energy=-207.22015007744255 stress="0.028485502284962848 2.438530656137448e-17 -1.3640089942776069e-17 2.438530656137448e-17 0.028485502284962303 5.434495625270279e-18 -1.3640089942776069e-17 5.434495625270279e-18 0.028485502284962865" pbc="T T T"
W        0.00000000       0.00000000       0.00000000       0.00000000       0.00000000       0.00000000      -0.00000000      -0.00000000      -0.00000000
W        1.59400000       1.59400000       1.59400000       0.00000000       0.00000000       0.00000000      -0.00000000      -0.00000000      -0.00000000
W        0.00000000       0.00000000       3.18800000       0.00000000       0.00000000       0.00000000      -0.00000000      -0.00000000      -0.00000000
W        1.59400000       1.59400000       4.78200000       0.00000000       0.00000000       0.00000000      -0.00000000      -0.00000000       0.00000000
W        0.00000000       3.18800000       0.00000000       0.00000000       0.00000000       0.00000000      -0.00000000      -0.00000000      -0.00000000
W        1.59400000       4.78200000       1.59400000       0.00000000       0.00000000       0.00000000      -0.00000000       0.00000000      -0.00000000
W        0.00000000       3.18800000       3.18800000       0.00000000       0.00000000       0.00000000      -0.00000000      -0.00000000       0.00000000
W        1.59400000       4.78200000       4.78200000       0.00000000       0.00000000       0.00000000      -0.00000000       0.00000000       0.00000000
W        3.18800000       0.00000000       0.00000000       0.00000000       0.00000000       0.00000000      -0.00000000      -0.00000000      -0.00000000
W        4.78200000       1.59400000       1.59400000       0.00000000       0.00000000       0.00000000       0.00000000      -0.00000000      -0.00000000
W        3.18800000       0.00000000       3.18800000       0.00000000       0.00000000       0.00000000      -0.00000000      -0.00000000      -0.00000000
W        4.78200000       1.59400000       4.78200000       0.00000000       0.00000000       0.00000000       0.00000000      -0.00000000       0.00000000
W        3.18800000       3.18800000       0.00000000       0.00000000       0.00000000       0.00000000       0.00000000      -0.00000000      -0.00000000
W        4.78200000       4.78200000       1.59400000       0.00000000       0.00000000       0.00000000       0.00000000       0.00000000      -0.00000000
W        3.18800000       3.18800000       3.18800000       0.00000000       0.00000000       0.00000000       0.00000000       0.00000000       0.00000000
W        4.78200000       4.78200000       4.78200000       0.00000000       0.00000000       0.00000000       0.00000000       0.00000000       0.00000000
16
Lattice="6.376 0.0 0.0 0.0 6.376 0.0 0.0 0.0 6.376" Properties=species:S:1:pos:R:3:momenta:R:3:forces:R:3 energy=-205.68539741313612 free_energy=-205.68539741313612 stress="0.004224549001631312 0.0015652231697510764 0.0012945274363271532 0.0015652231697510764 0.00033154210013539064 -0.0028198401852667027 0.0012945274363271532 -0.0028198401852667027 0.0020340805930758013" pbc="T T T"
W       -0.07164241       0.08887448       0.03232658       0.62297841       4.40052862       1.13046717       1.04672606      -1.25680987      -0.65721569
W        1.64476429       1.57366363       1.61277487      -1.95260243       4.89795442       0.33589650      -0.49320678       0.19126037      -0.55099395
W        0.13039150      -0.08629455       3.22303254      -0.54413498       3.94887800      -0.90141882      -2.01906744       0.77996905      -0.44158011
W        1.68992923       1.47206242       4.74705663      -0.70188674      -3.05686902       0.99584942      -1.02496749       1.48134814       0.85754280
W       -0.07287351       3.15510656      -0.04323841      -3.56783602       3.42761022      -1.02055930       1.32081180       1.29148175       0.18824623
W        1.48821974       4.80451608       1.44628529      -3.84538981       0.65769060      -2.26202182       1.00747358      -0.52479343       1.91231768
W       -0.02424032       3.10914696       3.12644423       4.26265463       2.33366150      -0.45390894       1.06580804       1.36127460       0.78859752
W        1.58324927       4.70884886       4.72882136       0.81043833      -4.90082826      -1.36001136       0.04006370       0.34060752       0.47334911
W        3.23461196       0.00028599       0.03685889       6.57189934       0.27781389      -2.32351889      -0.81303955       0.28077041      -0.49326572
W        4.84688033       1.67668994       1.57356543      -1.00682596      -6.66526738      -0.42325154      -1.10864042      -1.80766966       0.52756349
W        3.22483698       0.02404459       3.15251057       1.99740862       1.41523335      -1.29566519       0.37086040      -0.70150160       0.69008716
W        4.83292183       1.77231971       4.74968415      -1.99090839      -3.53922883       1.72456417      -0.81879237      -2.82320762       0.26830575
W        3.12464842       3.20724367       0.08411727      -4.46163198       0.91768580       3.03086727       0.42377499      -0.26483263      -1.31208773
W        4.69922347       4.72256311       1.67286963       3.92419886      -2.57634930       1.11723567       0.87298469       1.31437478      -0.61284387
W        3.17880407       3.15927186       3.23348207      -1.79024525      -1.17982681       1.51603333      -0.28949213       0.81615938      -0.45359747
W        4.74627515       4.86765668       4.87940888       1.67188338      -0.35868679       0.18944232       0.41870292      -0.47843117      -1.18442520
16
Lattice="6.376 0.0 0.0 0.0 6.376 0.0 0.0 0.0 6.376" Properties=species:S:1:pos:R:3:momenta:R:3:forces:R:3 energy=-205.5004649415667 free_energy=-205.5004649415667 stress="-0.00010584328092207832 -0.00018523611703230475 0.0009049872840953077 -0.00018523611703230475 -0.0029186996187498377 0.001490325372860772 0.0009049872840953077 0.001490325372860772 -0.004017338293798602" pbc="T T T"
W       -0.03272720       0.02327933       0.09400232       5.91205141      -7.59565651      -4.16535716      -0.50622123      -1.10250991      -0.67849719
W        1.65529824       1.64422950       1.54010953       0.38779243      -3.00377224       2.17877312      -0.75920848      -1.05454279       1.46353309
W       -0.07985032      -0.00428068       3.29677847       0.42683577       5.97118724       2.59924477       1.32764399       0.69581363      -1.61825415
W        1.60966149       1.55412366       4.84950449      -3.64846075      -6.06046282       5.29748499      -0.24093643       0.98576995      -1.81245229
W       -0.03122222       3.05297336      -0.10923388       5.02671290       6.46812876      -0.90298385       0.68484384       2.91318943       1.44280781
W        1.60764098       4.72963998       1.59474360      -7.61423371      -4.55811320       4.00967204      -0.69314548       0.73148182      -0.33742871
W        0.09880115       3.20546112       3.09805526       3.18681141      -3.65511237      -6.45951149      -0.53231305      -0.41330042       1.21315736
W        1.57835911       4.85342138       4.74350534      -0.29784009      -4.19094167      -1.14598226       0.14043314      -1.76710326       0.43362694
W        3.00282458      -0.03750526       0.00034416      -0.32657179       2.23763913       0.64734109       3.11880341       0.36321625      -0.02875700
W        4.85763803       1.57973274       1.63512732       2.35861936       0.22645062       3.18670054      -1.09349140      -0.17612092      -0.62630257
W        3.10639624      -0.04736843       3.13931494      -8.36659321      -4.96945839      -1.68107189       0.96064225       0.83703416       0.75642372
W        4.77360894       1.72818628       4.76967129      -2.13189672       6.14189117      -1.60271562      -0.22292743      -2.38578038       0.27231863
W        3.18212414       3.19759244       0.01961001       7.46110451       7.25459599      -0.41726780       0.38340468       0.17414553      -0.70647771
W        4.75998927       4.75657090       1.66900010      -0.41864960       0.30463469       1.28041297       0.73116443       0.50255326      -1.66703717
W        3.32572154       3.14422598       3.16225995       4.62714138       2.14884557       0.98030368      -1.93843900       0.72679246       0.59217079
W        4.84173604       4.87571770       4.75320710      -6.58282330       3.28014404      -3.80504313      -1.36025325      -1.03063883       1.30116846
16
Lattice="6.376 0.0 0.0 0.0 6.376 0.0 0.0 0.0 6.376" Properties=species:S:1:pos:R:3:momenta:R:3:forces:R:3 energy=-205.18023029010914 free_energy=-205.18023029010914 stress="-0.00807794529314504 -0.0029007228604452442 -0.0037071818703762723 -0.0029007228604452442 -0.0046446609283752015 -0.0037738580836180788 -0.0037071818703762723 -0.0037738580836180788 -0.0024914753516812158" pbc="T T T"
W        0.01949624      -0.13851359      -0.12789859      -6.12099460       3.60300604       1.70440212       0.06111778       3.01733147       2.28950489
W        1.63865930       1.76146429       1.63858606       1.54993388       4.77919967      -1.07533844      -1.49596841      -2.67629187      -1.85008101
W        0.06897682       0.07643376       3.10911127       2.83729647       1.20488152      -6.49180134      -0.63856505      -0.59789798       0.57990294
W        1.53966966       1.61523021       4.80728035      -4.25932859       3.94790153      -3.15034579       0.47955630      -0.46605943       0.00686751
W       -0.10622600       3.22417316       0.03958639       3.01989794       3.29440922       3.74036328       1.60018688      -1.53673728      -0.02030697
W        1.60220311       4.91033706       1.57264126      -2.87230278      -1.49212049       1.51113704      -0.05755000      -1.22469519       0.06477835
W        0.03356077       3.17261833       3.21790476      -0.85381014      -0.34348777      -0.88991071      -1.22878100       0.30486891      -0.01708912
W        1.59988996       4.79558520       4.82808566       4.70980826       1.59693345      -4.47599199       0.93710985      -0.24917116      -1.15837188
W        3.26133231       0.00124477       0.00509846       2.53314009       3.29719165       5.60380197      -0.92989168      -0.18460816       0.14446551
W        4.75862389       1.60444471       1.57181807      -4.28093346      -4.69646037      -1.81088506       0.33200278      -0.47023096       0.42296873
W        3.24514403      -0.09694413       3.20194137       8.77511890      -3.90411180      -3.81691231      -0.61433409       1.48562361       0.10994154
W        4.68839118       1.50438844       4.79558678      -0.76800987       0.75171237       3.14399221       1.15392518       1.27208159      -0.61006881
W        3.15073633       3.19165928      -0.06480965      -2.12886313      -6.53319902      -3.42451634       0.33204116       0.23833762       0.63724249
W        4.78931982       4.71906495       1.74696612      -6.95955900      -6.17973945       5.62018954      -0.01764765       0.79270609      -2.00286752
W        3.00654888       3.17576688       3.10928977       5.63574999       1.64710538      -0.95658503       3.31131164       0.51639997       2.03168084
W        4.95967367       4.73904668       4.80481192      -0.81714398      -0.97322193       4.76840084      -3.22451371      -0.22165721      -0.62856749
16
Lattice="6.376 0.0 0.0 0.0 6.376 0.0 0.0 0.0 6.376" Properties=species:S:1:pos:R:3:momenta:R:3:forces:R:3 energy=-205.5928485567204 free_energy=-205.5928485567204 stress="0.0024544723331774835 -0.0024637619567422758 -0.0009533064687878255 -0.0024637619567422758 0.0045284548479108235 0.00039521651544248816 -0.0009533064687878255 0.00039521651544248816 0.0015881884225518509" pbc="T T T"
W       -0.02230013       0.03381303      -0.00867349       5.20545618       2.15612786       1.41238053      -0.26746649      -0.55878274      -0.32564017
W        1.63337851       1.60678944       1.78473559      -4.49527487      -0.87747902       4.36223755      -0.55453618       0.07088681      -3.17920605
W        0.01841867      -0.09540419       3.11870036       4.24587820       3.39971411      -1.72023478      -0.85230327       0.69734825       1.36321246
W        1.57800696       1.52465688       4.84786689      -0.15478866       1.12269370       2.80754754      -0.17604055       1.57874392      -0.22839174
W        0.09903210       3.27082914       0.04609015       2.60032763      -3.26037594      -4.36225875      -1.41039218      -1.27015306      -0.94446487
W        1.57505885       4.72050717       1.58749658      -1.98496576      -3.01737499       6.10501725       0.49840565       0.86430861       0.41843026
W       -0.05905038       3.11640391       3.13920987      -8.31740369       3.58659189      -3.81201053       1.33793536       1.36407719       1.12940026
W        1.61952755       4.73032386       4.82821124       0.26569606       0.99026736       3.02449709      -0.52069233       0.22658384      -0.76627580
W        3.03680939       0.06642781       0.00825273       3.62263415      -4.39969764      -4.07179859       2.33416588      -1.12704599       0.30817901
W        4.88937717       1.59394946       1.55390608      -9.17991633       0.01083487      -0.60305282      -1.56378969       0.25579009      -0.16275542
W        3.05743241       0.09782534       3.22566650       2.82810483       3.56997173      -2.67689853       2.46172156      -1.94676932      -0.02897576
W        4.86222276       1.61003948       4.67580010      -2.12584765      -6.00477089       1.29281618      -1.08333134      -0.70585670       1.59385573
W        3.28064139       3.13006966      -0.03224651       1.38943059       4.93653175       2.85398032      -0.52825786       0.86943295       0.41381337
W        4.71505878       4.88810487       1.58859982      -3.72256876       2.50061155      -7.23059628       0.28612319      -1.20206464      -0.62964835
W        3.21639303       3.19755049       3.19200475       9.31418086      -0.25395915       3.46135475      -0.38647944       0.29180029      -0.12299446
W        4.75599294       4.76411367       4.70037935       0.50905723      -4.45968718      -0.84298093       0.42493770       0.59170050       1.16146154
16
Lattice="6.376 0.0 0.0 0.0 6.376 0.0 0.0 0.0 6.376" Properties=species:S:1:pos:R:3:momenta:R:3:forces:R:3 energy=-205.8774829541531 free_energy=-205.8774829541531 stress="0.00818153746893789 0.0020982635172358045 0.0028022325052161454 0.0020982635172358045 0.005702393781266346 -0.0002531775781127016 0.0028022325052161454 -0.0002531775781127016 0.005614936491211666" pbc="T T T"
W       -0.10427699       0.08896520       0.08771539       0.99790449       0.85022100       2.39243448       1.60084236      -1.29403451      -1.17034392
W        1.59991110       1.55374653       1.59003010       0.77258590      -3.22884020      -0.87929736      -0.33003450       0.36387548      -0.59379810
W       -0.06929001      -0.03061612       3.25152969      -3.37305392      -3.40339054       0.81699212       1.38450649       0.73809210      -0.96660522
W        1.61686165       1.56856376       4.62363789       0.70660064     -10.77513585       5.44809330      -0.16708634       0.58671169       2.70955892
W       -0.09614654       3.22562664       0.01952196      -4.93875517      -0.57351196      -4.90457945       1.94138472       0.02106016      -0.02726174
W        1.65004717       4.70981761       1.57336763      -4.80891943       5.05685180      -4.04035908      -1.12273797       0.65086110       0.10285811
W        0.02269444       3.19780908       3.25439431       4.71732765       3.34800356       1.48466257      -0.01311472      -0.26192263      -1.41701955
W        1.66711099       4.86818305       4.69145591      -3.80447922       4.24565887       3.29399252      -0.94617888      -1.42193074       1.51721289
W        3.14000798      -0.06633581       0.10761099       3.86504224       3.71367238      -5.20613461       0.43862808       1.12228893      -1.66312950
W        4.81291045       1.58031113       1.61383463      -2.42305218       4.66615253       3.08942331      -0.75314788       0.57117902       0.28813269
W        3.21671869      -0.01076649       3.19900144      -1.22946131      -0.80035946      -7.67255287      -0.17021438      -0.02930877      -0.14301459
W        4.79157836       1.68726560       4.85097058       0.09820975       0.48087758       2.97015091      -0.44958519      -1.62109158      -0.75955654
W        3.18009740       3.20014925      -0.03554580       2.79194238       0.00979480      -2.43596510      -0.41504149      -0.41645479       0.08092610
W        4.80280905       4.80436601       1.61705717       1.58621113      -0.48783340       2.73301642      -0.20783608      -0.74108092      -0.50877114
W        3.20002274       3.10927148       3.11768969       2.16565962      -1.34800484       3.51922698       0.12908961       1.17628017       0.70078997
W        4.82494352       4.76964308       4.69372843       2.87623744      -1.75415627      -0.60910412      -0.91947381       0.55547529       1.85002163
16
Lattice="6.376 0.0 0.0 0.0 6.376 0.0 0.0 0.0 6.376" Properties=species:S:1:pos:R:3:momenta:R:3:forces:R:3 energy=-205.2859076868122 free_energy=-205.2859076868122 stress="0.0034340134233181085 0.0008753311009699696 -0.0016043453123456555 0.0008753311009699696 -0.00794514639501113 -0.002852747168091275 -0.0016043453123456555 -0.002852747168091275 -0.0028920245467550245" pbc="T T T"
W       -0.02361788       0.02533151       0.09255218      -1.00767606       0.30073531       0.50954282       0.93767908      -0.58911414      -1.18885735
W        1.61762751       1.55452210       1.65043525      -1.29941947      -0.55279750      -3.45601927       0.36361861       0.61273918      -1.07913566
W        0.00769152       0.05210019       3.22424463       3.33098708       5.94930671       0.33455085       0.21756193      -1.06909866      -0.44161101
W        1.68673056       1.58060651       4.72688469      -1.64815627      -0.26975159       3.30006127      -1.11633186       0.70737182       1.35842716
W       -0.23201258       3.07757460      -0.04729578       0.69892158      -1.58920213      -3.31078751       3.12845522       1.85380751       0.40886468
W        1.68619874       4.78413424       1.53929915       3.57863756      -3.60202115       0.20801206      -2.00388787      -0.25208413       1.46827429
W        0.03771093       3.16474823       3.16015791      -0.31454868      -6.04506845      -8.98166670      -0.13117143       0.80306291       0.17320163
W        1.55757988       4.87505844       4.92006513       0.09012319      -0.52762752       5.39247530      -0.43094129      -1.62970595      -1.99055412
W        3.27293250      -0.09075575      -0.00316085       1.20895570      -1.45219775       0.56616239      -0.96692139       2.30858216       0.48113630
W        4.85050898       1.55487681       1.56767637       3.17527598      -0.09923709      -3.20206860      -1.92423200       0.41989465       0.81984077
W        3.13806252      -0.10229842       3.25528574      -0.21453072      -3.68343116       0.07633228       0.92893215       2.36210043      -1.52169397
W        4.82321332       1.60775479       4.72808103       2.54202412       0.57582383       4.00990406      -1.24654118       0.01687597       0.09886316
W        3.06632734       3.23487439      -0.00531197      -1.10923165       3.59146265       3.80248148       1.36685095      -1.50579171      -0.11187847
W        4.81327368       4.76698754       1.59025523       1.13156899       1.48302248      -0.76866115       0.06103387      -0.16673320      -0.15354217
W        3.18310443       3.29018577       3.18646355      -5.45688158       4.02021585       3.25156483       0.23514015      -1.95620322      -0.15571948
W        4.77066853       4.88029906       4.67036776      -4.70604978       1.90076751      -1.73188411       0.58075506      -1.91570361       1.83438424
16
Lattice="6.376 0.0 0.0 0.0 6.376 0.0 0.0 0.0 6.376" Properties=species:S:1:pos:R:3:momenta:R:3:forces:R:3 energy=-205.33955415729076 free_energy=-205.33955415729076 stress="0.0029121184683629127 0.0005969193681180676 -7.050123883016405e-05 0.0005969193681180676 -0.0024856374418941343 0.0006259858276059586 -7.050123883016405e-05 0.0006259858276059586 -0.0035236240752327744" pbc="T T T"
W        0.00550984      -0.07532195       0.11279325       3.40268595      -6.40358812       2.57956494       0.45329665       2.16134130      -2.35922128
W        1.61377346       1.65404041       1.56512302       1.01459141       2.84563631      -4.26824264      -0.48387264      -0.31194643       0.90488597
W       -0.11337077      -0.12873856       3.23556081      -1.98817096       5.60051030      -0.72139449       1.13259118       2.18580613      -0.20557181
W        1.57109572       1.70241439       4.86361172      -0.21559997       3.72962920       3.73278591       0.23499398      -2.05724377      -1.43547730
W        0.01776717       3.28108540       0.02005914       0.82217824       0.19327899       0.81474185      -0.08265995      -1.83140207      -0.06388085
W        1.58581491       4.90829842       1.58295720       0.17819512      -3.02855861      -1.73700371       0.98008848      -2.16901791       0.56491348
W        0.10276697       3.18868234       3.17253927       2.74392684      -0.51641323       0.60452002      -1.79691367      -0.49109861      -0.08049131
W        1.59351326       4.77935200       4.76118398       2.39408755      -6.11250799      -2.85772137       0.21992258       0.61800499       0.24166469
W        3.17735575      -0.01618084      -0.03488290      -5.83797599       3.62313069       1.97565884      -0.06017059       0.19522611       0.00493174
W        4.76437830       1.51850517       1.45419768      -1.48260246       7.27875165       1.95511925       0.13857454       1.46591746       2.57672015
W        3.04545699       0.04475303       3.19430729       0.86384495       3.21446408      -1.07681730       1.72992132      -0.34293157       0.07696303
W        4.91306212       1.53220032       4.84605558       1.75573137      -2.19101710      -1.69949642      -1.63470252       0.65290214      -1.50921264
W        3.13935886       3.16391354      -0.06512315      -3.22157368      -0.29516443      -4.25920123       1.13751124       0.69906906       1.35414069
W        4.82344876       4.81329308       1.47689458       1.73696578      -6.04417311      -0.57180451      -1.75179044      -1.43273155       2.61414762
W        3.20082354       3.14625017       3.24074140      -0.73425502      -1.50703494       1.35742527       0.77558545       0.65078217      -1.15747252
W        4.81524511       4.74345309       4.82998113      -1.43202914      -0.38694370       4.17186560      -0.99237561       0.00732253      -1.52703966
16
Lattice="6.376 0.0 0.0 0.0 6.376 0.0 0.0 0.0 6.376" Properties=species:S:1:pos:R:3:momenta:R:3:forces:R:3 energy=-205.60311220021651 free_energy=-205.60311220021651 stress="0.0004346607659712072 -0.0004752285738886046 0.0003526379668679601 -0.0004752285738886046 0.003395095870284279 -0.003160335095411394 0.0003526379668679601 -0.003160335095411394 0.003286938780037578" pbc="T T T"
W        0.07317048       0.04306574      -0.04792253       3.85553206      -0.93129356      -0.04988100      -1.06608312      -0.48051457       0.51934771
W        1.55621415       1.58973282       1.59825661      -2.94506103       7.67775476       2.08566340      -0.25442570      -0.48914739       0.20404444
W       -0.02876972       0.08186372       3.18686086      -0.83054084       2.50384321      -0.56807298       0.52282849      -1.02575112      -0.13726103
W        1.61499842       1.72082047       4.83651102       3.06647417       4.75969144      -9.16648265       0.11275853      -2.85815008      -0.45328605
W       -0.07909500       3.20137995       0.06409184      -1.95254753      -1.01540728       5.17286929       0.68844109      -0.62659865      -0.63702371
W        1.55877324       4.69833722       1.56028575       2.51638917       0.45907099       5.38578800       0.52419928       1.57962000       0.45958269
W        0.17207883       3.22979865       3.35569128      -0.54529108       3.63073878       1.02054966      -3.27099859      -0.17323681      -2.48200245
W        1.65230097       4.75782420       4.78933621       5.62009055      -3.92138181       2.63932323      -0.17512155       1.79869108       0.25607254
W        3.21951250       0.03308652       0.00439644       4.77635762       2.03403169       1.29373267      -0.26598921      -0.83098274      -0.98529252
W        4.65312439       1.51561259       1.62185099      -2.15861859      -1.38526284      -0.95081319       2.01406376       0.97808769      -0.72257062
W        3.17109339      -0.06513652       3.05671558       0.43310707      -3.35012690      -0.72321183      -0.20918030       0.19854194       1.86449223
W        4.78963481       1.65198068       4.70569394      -4.10522428       0.85445156      -2.74000224      -0.29731755      -0.70460214       1.35925971
W        3.10270817       3.16241277       0.04153333      -2.61048935      -2.25210143       2.16251151       1.55266085       0.60405111      -0.50905998
W        4.84573636       4.66187474       1.53597762      -2.27870414      -1.27151564       0.50975815      -1.23739631       1.56710387       1.12861666
W        3.15568678       3.14241772       3.19241939      -5.97962392      -2.54755349      -3.22640732       1.51318152       0.70870654      -0.12842498
W        4.79883223       4.83092873       4.75430169       3.13815012      -5.24493948      -2.84532470      -0.15162119      -0.24581875       0.26350536
16
Lattice="6.376 0.0 0.0 0.0 6.376 0.0 0.0 0.0 6.376" Properties=species:S:1:pos:R:3:momenta:R:3:forces:R:3 energy=-205.75413049771743 free_energy=-205.75413049771743 stress="0.0046332697545777525 0.0006416882691904102 -0.0007044131221225645 0.0006416882691904102 0.005277091057862026 -0.0005715347209187149 -0.0007044131221225645 -0.0005715347209187149 0.005240157720091071" pbc="T T T"
W        0.10007509      -0.09588930      -0.01402246      -5.24379381      -3.53342968       1.05267948      -1.88817041       1.08702763       0.43893948
W        1.52360330       1.61317631       1.55846381       1.79646366      -0.94835668       2.17962772       0.99450766      -0.54416731       0.55599137
W       -0.05615064      -0.06885823       3.27998099       3.80929489      -0.10357324       0.26065455       0.73227502       0.69393758      -1.04897617
W        1.61978412       1.54040588       4.74414536       2.36177210       6.72377569      -0.06914783      -0.60745926       0.68323748       0.01557886
W        0.01873680       3.17487322      -0.07751867      -5.21427649       4.38474694      -3.74562940      -0.69980387      -0.16541400       1.00201527
W        1.62878807       4.76061224       1.60420246       3.30851944      -3.38202285      -0.72472584      -0.69286796       0.65890928      -0.15449711
W        0.09684019       3.17680661       3.13179741      -0.90298277      -0.73078474       9.45828519      -1.37502167      -0.02049856       0.77239250
W        1.61625431       4.67239104       4.84469180      -6.21858531      -1.44686875      -4.20863674      -0.35882201       1.40710629      -1.15731506
W        3.14835383       0.19031667       0.03958580       6.11370734      -1.16142573      -3.05368237       1.24445793      -2.46977015      -0.37652541
W        4.80529734       1.52943830       1.69001960      -2.32281448      -0.15854358       1.61612800      -0.02754497       0.62481281      -1.41887434
W        3.14792598      -0.04357695       3.21257212       3.23068610      -0.64318740      -1.33727741       0.02000585       1.05848827      -0.31792760
W        4.75300636       1.73711082       4.78814378       0.20162695       1.67312329       2.66403178       0.46148491      -1.56613391       0.04028827
W        3.18179713       3.22255723       0.02582092      -3.95849426       2.29213938      -3.44227359       0.46418551      -0.02637862      -0.65626644
W        4.76962686       4.75415857       1.62644489       1.04239666      -4.71589991       1.58352741       0.85316847       0.59249456      -1.16528800
W        3.23019835       3.24129451       3.05206928       1.35859929       1.88592016       4.36506705      -0.46444167      -1.37700825       2.33823479
W        4.67186291       4.85118307       4.74960291       0.63788069      -0.13561290      -6.59862798       1.34404646      -0.63664311       1.13222959
16
Lattice="6.376 0.0 0.0 0.0 6.376 0.0 0.0 0.0 6.376" Properties=species:S:1:pos:R:3:momenta:R:3:forces:R:3 energy=-204.9968480278494 free_energy=-204.9968480278494 stress="-0.00018392126501374094 -0.0011959767983845712 0.003907800816036714 -0.0011959767983845712 -0.005355858841176258 -0.0015453672688943473 0.003907800816036714 -0.0015453672688943473 0.003387999283872276" pbc="T T T"
W        0.03338838      -0.05454672       0.02211463      -2.97205687       2.62060851       1.62497640      -0.61417401       1.20725402       0.12769824
W        1.63861925       1.83212626       1.69284790      -2.03835852      -4.41887884      -7.36902943      -0.49108826      -3.84025858      -2.15225857
W       -0.04430194       0.17880709       3.16694198      -0.50048373       7.90556521       2.07896131       0.64620808      -2.67925474      -0.38446948
W        1.70056246       1.57711923       4.74264130       1.72219889      -2.17266717       0.87763699      -1.50298323       0.31146938       1.56822377