16
Lattice="6.376 0.0 0.0 0.0 6.376 0.0 0.0 0.0 6.376" Properties=species:S:1:pos:R:3:momenta:R:3 Temperature=0.0 Step=0 energy=-203.97118387464275 free_energy=-203.97118387464275 pbc="T T T"
W        0.00000000       0.00000000       0.00000000       0.00000000       0.00000000       0.00000000
W        1.59400000       1.59400000       1.59400000       0.00000000       0.00000000       0.00000000
W        0.00000000       0.00000000       3.18800000       0.00000000       0.00000000       0.00000000
W        1.59400000       1.59400000       4.78200000       0.00000000       0.00000000       0.00000000
W        0.00000000       3.18800000       0.00000000       0.00000000       0.00000000       0.00000000
W        1.59400000       4.78200000       1.59400000       0.00000000       0.00000000       0.00000000
W        0.00000000       3.18800000       3.18800000       0.00000000       0.00000000       0.00000000
W        1.59400000       4.78200000       4.78200000       0.00000000       0.00000000       0.00000000
W        3.18800000       0.00000000       0.00000000       0.00000000       0.00000000       0.00000000
W        4.78200000       1.59400000       1.59400000       0.00000000       0.00000000       0.00000000
W        3.18800000       0.00000000       3.18800000       0.00000000       0.00000000       0.00000000
W        4.78200000       1.59400000       4.78200000       0.00000000       0.00000000       0.00000000
W        3.18800000       3.18800000       0.00000000       0.00000000       0.00000000       0.00000000
W        4.78200000       4.78200000       1.59400000       0.00000000       0.00000000       0.00000000
W        3.18800000       3.18800000       3.18800000       0.00000000       0.00000000       0.00000000
W        4.78200000       4.78200000       4.78200000       0.00000000       0.00000000       0.00000000
16
Lattice="6.376 0.0 0.0 0.0 6.376 0.0 0.0 0.0 6.376" Properties=species:S:1:pos:R:3:momenta:R:3 Temperature=0.0 Step=0 energy=-203.97118387464275 free_energy=-203.97118387464275 pbc="T T T"
W        0.00000000       0.00000000       0.00000000       0.00000000       0.00000000       0.00000000
W        1.59400000       1.59400000       1.59400000       0.00000000       0.00000000       0.00000000
W        0.00000000       0.00000000       3.18800000       0.00000000       0.00000000       0.00000000
W        1.59400000       1.59400000       4.78200000       0.00000000       0.00000000       0.00000000
W        0.00000000       3.18800000       0.00000000       0.00000000       0.00000000       0.00000000
W        1.59400000       4.78200000       1.59400000       0.00000000       0.00000000       0.00000000
W        0.00000000       3.18800000       3.18800000       0.00000000       0.00000000       0.00000000
W        1.59400000       4.78200000       4.78200000       0.00000000       0.00000000       0.00000000
W        3.18800000       0.00000000       0.00000000       0.00000000       0.00000000       0.00000000
W        4.78200000       1.59400000       1.59400000       0.00000000       0.00000000       0.00000000
W        3.18800000       0.00000000       3.18800000       0.00000000       0.00000000       0.00000000
W        4.78200000       1.59400000       4.78200000       0.00000000       0.00000000       0.00000000
W        3.18800000       3.18800000       0.00000000       0.00000000       0.00000000       0.00000000
W        4.78200000       4.78200000       1.59400000       0.00000000       0.00000000       0.00000000
W        3.18800000       3.18800000       3.18800000       0.00000000       0.00000000       0.00000000
W        4.78200000       4.78200000       4.78200000       0.00000000       0.00000000       0.00000000
16
Lattice="6.376 0.0 0.0 0.0 6.376 0.0 0.0 0.0 6.376" Properties=species:S:1:pos:R:3:momenta:R:3 Temperature=0.0 Step=0 energy=-203.97118387464275 free_energy=-203.97118387464275 pbc="T T T"
W        0.00000000       0.00000000       0.00000000       0.00000000       0.00000000       0.00000000
W        1.59400000       1.59400000       1.59400000       0.00000000       0.00000000       0.00000000
W        0.00000000       0.00000000       3.18800000       0.00000000       0.00000000       0.00000000
W        1.59400000       1.59400000       4.78200000       0.00000000       0.00000000       0.00000000
W        0.00000000       3.18800000       0.00000000       0.00000000       0.00000000       0.00000000
W        1.59400000       4.78200000       1.59400000       0.00000000       0.00000000       0.00000000
W        0.00000000       3.18800000       3.18800000       0.00000000       0.00000000       0.00000000
W        1.59400000       4.78200000       4.78200000       0.00000000       0.00000000       0.00000000
W        3.18800000       0.00000000       0.00000000       0.00000000       0.00000000       0.00000000
W        4.78200000       1.59400000       1.59400000       0.00000000       0.00000000       0.00000000
W        3.18800000       0.00000000       3.18800000       0.00000000       0.00000000       0.00000000
W        4.78200000       1.59400000       4.78200000       0.00000000       0.00000000       0.00000000
W        3.18800000       3.18800000       0.00000000       0.00000000       0.00000000       0.00000000
W        4.78200000       4.78200000       1.59400000       0.00000000       0.00000000       0.00000000
W        3.18800000       3.18800000       3.18800000       0.00000000       0.00000000       0.00000000
W        4.78200000       4.78200000       4.78200000       0.00000000       0.00000000       0.00000000
16
Lattice="6.376 0.0 0.0 0.0 6.376 0.0 0.0 0.0 6.376" Properties=species:S:1:pos:R:3:momenta:R:3 Temperature=0.0 Step=0 energy=-203.97118387464275 free_energy=-203.97118387464275 pbc="T T T"
W        0.00000000       0.00000000       0.00000000       0.00000000       0.00000000       0.00000000
W        1.59400000       1.59400000       1.59400000       0.00000000       0.00000000       0.00000000
W        0.00000000       0.00000000       3.18800000       0.00000000       0.00000000       0.00000000
W        1.59400000       1.59400000       4.78200000       0.00000000       0.00000000       0.00000000
W        0.00000000       3.18800000       0.00000000       0.00000000       0.00000000       0.00000000
W        1.59400000       4.78200000       1.59400000       0.00000000       0.00000000       0.00000000
W        0.00000000       3.18800000       3.18800000       0.00000000       0.00000000       0.00000000
W        1.59400000       4.78200000       4.78200000       0.00000000       0.00000000       0.00000000
W        3.18800000       0.00000000       0.00000000       0.00000000       0.00000000       0.00000000
W        4.78200000       1.59400000       1.59400000       0.00000000       0.00000000       0.00000000
W        3.18800000       0.00000000       3.18800000       0.00000000       0.00000000       0.00000000
W        4.78200000       1.59400000       4.78200000       0.00000000       0.00000000       0.00000000
W        3.18800000       3.18800000       0.00000000       0.00000000       0.00000000       0.00000000
W        4.78200000       4.78200000       1.59400000       0.00000000       0.00000000       0.00000000
W        3.18800000       3.18800000       3.18800000       0.00000000       0.00000000       0.00000000
W        4.78200000       4.78200000       4.78200000       0.00000000       0.00000000       0.00000000
16
Lattice="6.376 0.0 0.0 0.0 6.376 0.0 0.0 0.0 6.376" Properties=species:S:1:pos:R:3:momenta:R:3 Temperature=45.43344147367277 Step=500 energy=-203.82806158342498 free_energy=-203.82806158342498 pbc="T T T"
W       -0.00103133       0.01994225       0.03587055       1.14892202       0.44568359       0.95827339
W        1.56085801       1.64431465       1.57307158       1.44230239       0.91631250      -0.70868705
W        0.00036106       0.03779135       3.17910343      -1.19342698      -1.04992532      -0.10642901
W        1.56968999       1.58443084       4.75721368      -0.63378286       0.74358718      -1.15233026
W        0.01890442       3.21712895      -0.00486465      -1.13588625       0.53986309       0.71201615
W        1.59592276       4.77930158       1.62161147       1.22072973      -0.64459603      -0.03869913
W       -0.00488164       3.20857761       3.22174227       0.29565074       0.63515633       1.08359620
W        1.63041915       4.80479981       4.82934047      -0.92932244       0.94463278      -0.72041972
W        3.21921470       0.00792484       0.00032131       1.72370292      -0.01554425      -0.97212656
W        4.81055203       1.55952066       1.62369528      -1.04900994       0.12925180       0.88712271
W        3.13507360      -0.00641859       3.12194682      -0.66386443      -0.89729627      -1.15472594
W        4.76794139       1.55077912       4.79629223       1.17340279      -0.23594862       0.22712241
W        3.21089249       3.20767084      -0.03159002      -0.49237366      -1.08143608       0.47896269
W        4.78420934       4.73924619       1.60281811      -1.45640967       0.42692442      -0.63275946
W        3.16211806       3.14930215       3.22038011       0.08701805       0.00617317       0.78119737
W        4.79575596       4.75168774       4.70904734       0.46234759      -0.86283829       0.35788620
16
Lattice="6.376 0.0 0.0 0.0 6.376 0.0 0.0 0.0 6.376" Properties=species:S:1:pos:R:3:momenta:R:3 Temperature=116.26724861276246 Step=1000 energy=-203.71561939259436 free_energy=-203.71561939259436 pbc="T T T"
W       -0.03317437       0.01102587      -0.01955948       1.31105639       0.03343871       1.06316309
W        1.56150919       1.51990175       1.65502362       0.42523337       1.37130482      -1.04355743
W       -0.03910854       0.05890577       3.20695073      -0.56438729       0.85291802       3.42330977
W        1.60343267       1.53920458       4.78454086       0.33126817      -1.13082558      -1.80218508
W        0.06314375       3.19866847       0.00625407      -0.91072873       2.63542926      -0.43713331
W        1.57777821       4.82633287       1.62989812       0.50006153       0.32565514       1.47897725
W        0.02165471       3.17558214       3.11484744       0.73571079       1.88244458       1.47616085
W        1.61228780       4.68775406       4.80934000       1.13497221      -0.04777893       0.22395849
W        3.13883149       0.03036173      -0.00215764       0.14757961      -0.33675921       1.37419865
W        4.77817885       1.53538588       1.54435014      -1.18414406      -1.98387387       0.02124888
W        3.24706779       0.05174997       3.24715071      -0.53016262      -0.48249844      -3.38256436
W        4.76047989       1.67639846       4.75344361      -2.34904768      -1.16094750       1.47795065
W        3.15879490       3.20636395      -0.00834479       1.09592680       1.07279122       0.49779415
W        4.78853120       4.80135232       1.56818729       0.61237443      -0.91594760      -1.85105415
W        3.21022659       3.21146209       3.19032197      -0.84787248      -1.11066076       0.34327934
W        4.80636587       4.72555009       4.77575335       0.09215954      -1.00468985      -2.86354680
16
Lattice="6.376 0.0 0.0 0.0 6.376 0.0 0.0 0.0 6.376" Properties=species:S:1:pos:R:3:momenta:R:3 Temperature=189.83236194665284 Step=1500 energy=-203.76118542672748 free_energy=-203.76118542672748 pbc="T T T"
W       -0.00701538      -0.01619748      -0.01604966      -2.44626599      -1.50172534      -0.63625295
W        1.61282220       1.56500744       1.62758427       0.86045090      -0.86428986       0.43841569
W        0.03441470       0.00812148       3.12154521      -0.13709150       0.13810930       1.47675397
W        1.61742695       1.58689285       4.78604066       0.71876047      -2.65357533      -1.77939951
W       -0.07029223       3.21727234       0.00292307      -1.71910564       1.33611845       0.83759377
W        1.56840082       4.71118654       1.53415461       1.17579200      -0.44376869       2.32249752
W        0.01936566       3.19313310       3.16816474       2.34815276       2.27307722      -4.15212962
W        1.57580006       4.79915858       4.80963729       0.53239800      -2.94113580      -0.32066508
W        3.16110437       0.03830283       0.00919127      -0.64393045       2.17362078       1.50783198
W        4.78886994       1.55763275       1.60171609      -3.27866949      -2.08717713      -1.93386149
W        3.21966311       0.00396769       3.21156271       1.26270333       0.16472377       2.10393895
W        4.80669708       1.57602037       4.70856508      -1.45917297       2.82380129      -1.88241338
W        3.18004154       3.16086926      -0.04171214       2.86286658       0.73044170       0.26285814
W        4.78811049       4.80999699       1.64196277      -2.22646729      -0.06379987       0.62832529
W        3.22413529       3.23954145       3.23798293       0.12534546       1.46934170       2.04504833
W        4.73645540       4.80509381       4.85273110       2.02423382      -0.55376219      -0.91854160
16
Lattice="6.376 0.0 0.0 0.0 6.376 0.0 0.0 0.0 6.376" Properties=species:S:1:pos:R:3:momenta:R:3 Temperature=195.49274536205183 Step=2000 energy=-203.69485852871992 free_energy=-203.69485852871992 pbc="T T T"
W        0.02524409      -0.00804111      -0.05087979      -0.61099560      -0.08089999      -2.39802869
W        1.59049322       1.56636176       1.63998931       2.45907644       1.07105563       3.63858027
W       -0.07602451      -0.01024931       3.18610329       0.90349249       0.17781160      -0.28602649
W        1.63037283       1.60828827       4.82678445       4.29439713      -1.17727997       0.02240456
W        0.02139897       3.30840215       0.01791704      -3.64300692       2.74569922      -0.85001169
W        1.57854276       4.79212422       1.55888145      -2.80176200      -4.03441559      -0.89246510
W       -0.00679645       3.15168365       3.26376153       1.99602359       1.71283013       1.24341862
W        1.63496998       4.81102159       4.72510277      -2.51895453       0.21092315      -1.01657204
W        3.21874776      -0.05064074      -0.03233092       0.08448236       1.27088777       1.37651991
W        4.81078139       1.61616740       1.63090077      -0.45204720      -1.61283112      -0.33630806
W        3.19767236       0.01488143       3.11070295       2.42193925      -0.29894652      -1.52948069
W        4.78555543       1.61792734       4.83426516      -1.69708028      -0.17665291      -1.48437422
W        3.16648974       3.12743574      -0.03433168       1.52852636      -0.55164546      -2.02550037
W        4.81480054       4.78530491       1.64898936      -0.89930004      -0.59005130       2.59598899
W        3.17866551       3.15888569       3.14875424      -0.36712342       1.28259472       1.39112994
W        4.68508638       4.76644699       4.78139007      -0.69766763       0.05092062       0.55072506
16
Lattice="6.376 0.0 0.0 0.0 6.376 0.0 0.0 0.0 6.376" Properties=species:S:1:pos:R:3:momenta:R:3 Temperature=191.01969533377317 Step=2500 energy=-203.61634093440682 free_energy=-203.61634093440682 pbc="T T T"
W        0.01101420      -0.06706651       0.04807512       1.51487532      -1.08068011      -2.04542229
W        1.61087663       1.62494619       1.59989761      -0.31579246      -0.44510106       4.05991151
W       -0.06277523      -0.03394766       3.14186731      -3.39827948      -1.23820109       0.52442826
W        1.55640929       1.63841634       4.71996494      -0.44262752       0.26176504       0.38587737
W        0.03937630       3.13761431      -0.01659672      -1.13638961       4.73780025       3.71346427
W        1.66740462       4.82535174       1.60489026       1.22042489      -0.56002144      -1.28536718
W       -0.03035025       3.17022835       3.11340997       2.59615322       0.92432981       0.29112915
W        1.62765363       4.78417969       4.89410667      -0.79422317       0.69132998      -2.11633205
W        3.20595208      -0.00223039      -0.07006712       1.35373346       0.83556373      -2.40340803
W        4.68934579       1.64176357       1.67497790      -0.02937944      -1.05919134      -0.75905056
W        3.16019845      -0.00021062       3.25988389       1.13929781      -0.18223650      -2.03016165
W        4.75735339       1.58620868       4.73436716      -0.68997811       1.19231896       0.46860841
W        3.22363330       3.18532394      -0.04288940       0.42195177      -3.72466099      -0.88940138
W        4.76507863       4.82591757       1.60507182       0.41092524       1.87295601       2.32661879
W        3.20062243       3.21129491       3.22769056      -0.63963725       0.14808932      -1.48742934
W        4.83420674       4.72820989       4.76135002      -1.21105468      -2.37406057       1.24653469
16
Lattice="6.376 0.0 0.0 0.0 6.376 0.0 0.0 0.0 6.376" Properties=species:S:1:pos:R:3:momenta:R:3 Temperature=151.69955850050036 Step=3000 energy=-203.48891988400294 free_energy=-203.48891988400294 pbc="T T T"
W       -0.02663437      -0.07845181       0.03387317       1.04163003      -3.47838249      -0.09472111
W        1.59378186       1.60444708       1.57564682       0.91118634       2.19207607       1.07952206
W        0.02492956       0.04348902       3.19725047      -1.52289328      -0.25440611       0.22148971
W        1.72485971       1.56915078       4.73811747       0.71119295       0.13413293      -2.77192559
W        0.04693311       3.15505096      -0.16194226      -0.95956162      -1.43554664      -3.77463451
W        1.53738740       4.77817746       1.71325958       0.41401760      -1.32331145       2.12011736
W       -0.04990812       3.13223556       3.22012263       0.97012481      -1.60437618      -1.90028616
W        1.61601848       4.79357909       4.81088700      -1.25486084       1.19817509       1.93843967
W        3.15731202      -0.05479872       0.06120651       0.30035824       0.70548656       0.69960270
W        4.79190545       1.61089350       1.65725634      -3.02790437       0.98325439       0.49905857
W        3.25182932       0.05175802       3.18834861      -0.56446529       0.10400996       0.04272551
W        4.70509267       1.64089805       4.81208808      -1.36254363      -1.13538400       1.09787412
W        3.11957159       3.27873254      -0.00496709       0.80603279      -0.90793059      -0.49031296
W        4.78400528       4.74739614       1.56055963       1.84908739       2.35683727       0.76320282
W        3.22812583       3.16910082       3.15938223      -1.06291288       2.12649324       2.05496823
W        4.75079021       4.81434151       4.69491079       2.75151176       0.33887195      -1.48512041
16
Lattice="6.376 0.0 0.0 0.0 6.376 0.0 0.0 0.0 6.376" Properties=species:S:1:pos:R:3:momenta:R:3 Temperature=158.8349360105798 Step=3500 energy=-203.50972837839174 free_energy=-203.50972837839174 pbc="T T T"
W       -0.05217890       0.04569917       0.01278650      -1.55135711      -2.28793391      -0.13284536
W        1.66280202       1.53387148       1.63414865       0.88495290       1.06572156       0.02795272
W       -0.00132629      -0.02550548       3.15948096       0.78107312      -0.74537424       2.69685058
W        1.60774898       1.60462606       4.77258662       1.54184777      -0.56719456      -1.89672113
W        0.03329509       3.25783224       0.08264008       0.53537405       1.70297518      -2.57860724
W        1.65132332       4.82014321       1.51726110      -0.39398250      -0.86584522       2.37099808
W       -0.02829662       3.24655053       3.29668415       0.67621058      -1.65566141      -1.11935024
W        1.57132666       4.76491043       4.75067905      -0.02430502       1.99022701       3.00508556
W        3.16925878      -0.02075063      -0.09690265      -0.53029649       1.18354901       0.77010931
W        4.82491787       1.52988710       1.66758719      -0.35397300      -1.09714104       0.51421481
W        3.22908397      -0.04583554       3.24076913       2.30644130      -1.29120685      -0.75182551
W        4.80998486       1.67112165       4.69139344       0.95140988       1.82104461       3.22843491
W        3.14626618       3.20889377      -0.00775302      -2.54025647      -1.76152194       0.34896012
W        4.72736528       4.78501711       1.58378133       0.23644176       2.42158946      -1.47775514
W        3.15735030       3.08819117       3.12212718      -2.07547195      -0.62829300      -1.84062713
W        4.74707849       4.79134773       4.82873027      -0.44410880       0.71506533      -3.16487434
16
Lattice="6.376 0.0 0.0 0.0 6.376 0.0 0.0 0.0 6.376" Properties=species:S:1:pos:R:3:momenta:R:3 Temperature=204.69858333773115 Step=4000 energy=-203.50640422411902 free_energy=-203.50640422411902 pbc="T T T"
W        0.05507967      -0.01181253      -0.05554060      -2.16027024       0.53444004       0.72815960
W        1.63020519       1.61698990       1.62519421       2.13490424       3.66769714       0.26266433
W       -0.00904022       0.05256513       3.11856987       1.75753094      -1.21369656      -1.27291563
W        1.61187087       1.59503208       4.82353524       1.99292070      -1.19898924      -1.24834679
W        0.01298728       3.15481098       0.00422401       1.18595321       0.56838811       3.59257452
W        1.55880457       4.77565605       1.55950017       1.26048610      -1.46762779      -3.52171038
W       -0.04418612       3.21588200       3.27379179      -0.99443055       0.70702527       2.53359015
W        1.59141978       4.73599587       4.70146824      -1.18255041       3.51076148      -1.02901656
W        3.19496389      -0.07387525      -0.00567907      -1.53583969      -0.36145213      -1.37998514
W        4.76707301       1.57436108       1.61559800       0.46625584      -3.16094756      -0.48812706
W        3.16342402       0.00583340       3.19071622      -1.84496832      -3.31473831      -1.04462347
W        4.70245702       1.48651697       4.67394455       1.84477962       1.09009503      -0.73745435
W        3.21144270       3.31047320       0.00879955      -0.77511842      -2.06987648      -1.39234555
W        4.76788835       4.77067282       1.62332372      -0.07856091       0.71732254       2.40485958
W        3.22455997       3.17754249       3.19665570      -2.41107924      -0.46507255       0.47616446
W        4.81705003       4.86935581       4.90189840       0.33998713       2.45667100       2.11651231
16
Lattice="6.376 0.0 0.0 0.0 6.376 0.0 0.0 0.0 6.376" Properties=species:S:1:pos:R:3:momenta:R:3 Temperature=208.2555692742231 Step=4500 energy=-203.35942989799958 free_energy=-203.35942989799958 pbc="T T T"
W       -0.00069724      -0.07865019       0.00873726      -0.22862042      -1.83381339      -2.35037705
W        1.57500858       1.50931689       1.52509944       2.10507772       1.91618699       1.47506473
W        0.01310353      -0.02470771       3.23624214      -0.28801754       1.07458116      -2.54236470
W        1.51393014       1.58146262       4.81160482       1.24169772       0.34404177       2.26817543
W       -0.03304232       3.23519028      -0.10117449       2.05913829      -1.60097832       0.80431892
W        1.63963646       4.82006226       1.60868551      -2.28358479       0.03156602      -1.26067449
W        0.05889411       3.22608987       3.07126316      -1.55021326      -0.30731940       0.21807866
W        1.66747753       4.75943754       4.80507484       3.12057123       1.42970875      -3.71821344
W        3.28317102      -0.00838751       0.05606277       1.11735293      -1.15138259       0.56536706
W        4.77141249       1.69885266       1.71040976       1.00797357      -1.60032849      -3.31217331
W        3.18114958       0.10841258       3.28117834      -2.70042821      -0.50565427       1.24402147
W        4.74656180       1.49936135       4.71962434      -0.47779524       1.77466372       0.42833707
W        3.13563266       3.23449604       0.06685992      -1.20041211       0.91720582       1.32115690
W        4.78116850       4.81584301       1.50324299       0.40714054       0.60330326       4.94654984
W        3.16879567       3.13899975       3.20696985      -2.14535088      -1.17339745      -2.96614062
W        4.75379748       4.74022057       4.74611934      -0.18452956       0.08161644       2.87887352
16
Lattice="6.376 0.0 0.0 0.0 6.376 0.0 0.0 0.0 6.376" Properties=species:S:1:pos:R:3:momenta:R:3 Temperature=286.35114800837727 Step=5000 energy=-203.37668063673874 free_energy=-203.37668063673874 pbc="T T T"
W        0.04424665       0.03983491       0.03049506      -0.95543767      -0.00675750       1.34138175
W        1.61087555       1.56311902       1.52078110       1.40760000       2.91662300       0.58519890
W        0.03026829       0.01593010       3.22143694       2.12972020      -0.83655025      -4.27378642
W        1.62369376       1.66073199       4.70265121      -3.94472696      -1.32743680      -0.71803264
W       -0.04852124       3.17267932       0.05822963      -2.45240139      -3.16726968      -2.77498543
W        1.60413061       4.75979005       1.68361745       2.15894264      -1.11370338       2.09410970
W       -0.00018784       3.12772970       3.22084930       0.57184708       1.72217182      -4.23039163
W        1.52251234       4.71994792       4.85270418       4.17655292      -1.18236278       0.29233028
W        3.14071665      -0.04598228      -0.06731942       3.04768340       0.77758337       2.17319836
W        4.75570204       1.65207376       1.68714792      -0.66971685       3.86411739       2.49528333
W        3.19663947       0.04445789       3.17036826      -3.54744854       0.48709989       2.75884029
W        4.78804469       1.44785943       4.75588817       1.06047162      -2.81964172       0.96161801
W        3.16196270       3.23136457       0.04794446      -2.27422445       0.07952300       1.85295332
W        4.80939526       4.82271057       1.39958398      -0.07523302       1.51836320      -1.28771179
W        3.24786455       3.22144188       3.19157997      -0.68208732       1.42337904      -0.03193796
W        4.76865652       4.82231117       4.78004179       0.04845835      -2.33513861      -1.23806807
16
Lattice="6.376 0.0 0.0 0.0 6.376 0.0 0.0 0.0 6.376" Properties=species:S:1:pos:R:3:momenta:R:3 Temperature=307.26779839284984 Step=5500 energy=-203.46297198785487 free_energy=-203.46297198785487 pbc="T T T"
W       -0.04144983      -0.01947045       0.03169672      -1.46195875       3.16581894       1.10152089
W        1.57169261       1.50572530       1.56890267       1.04763131       0.10896153      -2.60285328
W       -0.04096963       0.03775270       3.28027651      -1.87654490      -0.82914054       0.85041392
W        1.63556035       1.63897980       4.78447536       1.01876615       3.81657618      -3.91950636
W        0.07478333       3.28802102       0.09850535      -0.18801880      -1.23296912       0.87302031
W        1.62440795       4.83229116       1.55235421       0.12631538      -1.55124735       7.16667800
W        0.05456195       3.15793652       3.21884913       0.38610836      -2.32199873       0.75990550
W        1.55123807       4.80537031       4.70600628       0.17406073      -0.24294181      -0.60330655
W        3.17864916      -0.04202155      -0.04366331       0.23161196       0.16093683      -4.24323636
W        4.81386523       1.61036026       1.64103273      -0.68515283       2.55149819       2.68358853
W        3.26183120       0.05524611       3.10376784      -1.29228671       0.63243700      -2.70425944
W        4.86204457       1.59168203       4.74676777       2.45162918      -1.85269425       1.11087369
W        3.18768789       3.20285849       0.02445306      -2.70452654       0.07637601       3.81640812
W        4.73883434       4.66414119       1.58126037       3.65413063      -1.11491913      -1.92612425
W        3.09404091       3.13613895       3.13798896       1.69903198       1.29762964      -1.48591956
W        4.68922190       4.79098817       4.82332633      -2.58079714      -2.66432337      -0.87720317
16
Lattice="6.376 0.0 0.0 0.0 6.376 0.0 0.0 0.0 6.376" Properties=species:S:1:pos:R:3:momenta:R:3 Temperature=279.9869465600281 Step=6000 energy=-203.22093286023778 free_energy=-203.22093286023778 pbc="T T T"
W        0.04861202       0.05226751       0.01158858      -0.50775680       2.79708885       4.42090375
W        1.59969701       1.68418040       1.70126928       1.38262858      -0.29338929      -1.27304771
W        0.04078307       0.04892124       3.14437981       1.14335809       1.50677945       0.06525966
W        1.56784092       1.56030924       4.82403870       1.19770127       2.74727667       0.56896025
W       -0.03802067       3.13131460       0.01542715      -0.48240372       0.86049602       1.38169256
W        1.63851190       4.70129510       1.43771102       0.81057985      -2.09925399       1.99309020
W        0.00830178       3.20983516       3.10338236      -1.14830539       1.12504234       1.64150405
W        1.56278881       4.63245559       4.76314483      -1.84097961       0.02646821      -2.12646284
W        3.12945690       0.00234520       0.16730534       1.03173854      -0.71473775      -3.77321232
W        4.75054748       1.62231968       1.63126689      -0.55104796       2.22630616       4.01653713
W        3.19613791      -0.04864695       3.23213431      -1.76208916       1.52914103      -1.65839912
W        4.74372530       1.56862237       4.66132898       5.40291169      -2.41678463      -2.70068348
W        3.33377307       3.20717751      -0.05475296       1.13169002      -2.49351198       0.87246539
W        4.75244034       4.76437316       1.56965671       0.27922517      -4.47006669      -1.33381270