16
Lattice="6.376 0.0 0.0 0.0 6.376 0.0 0.0 0.0 6.376" Properties=species:S:1:pos:R:3:momenta:R:3 Temperature=0.0 Step=0 energy=-203.97118387464275 free_energy=-203.97118387464275 pbc="T T T"
W        0.00000000       0.00000000       0.00000000       0.00000000       0.00000000       0.00000000
W        1.59400000       1.59400000       1.59400000       0.00000000       0.00000000       0.00000000
W        0.00000000       0.00000000       3.18800000       0.00000000       0.00000000       0.00000000
W        1.59400000       1.59400000       4.78200000       0.00000000       0.00000000       0.00000000
W        0.00000000       3.18800000       0.00000000       0.00000000       0.00000000       0.00000000
W        1.59400000       4.78200000       1.59400000       0.00000000       0.00000000       0.00000000
W        0.00000000       3.18800000       3.18800000       0.00000000       0.00000000       0.00000000
W        1.59400000       4.78200000       4.78200000       0.00000000       0.00000000       0.00000000
W        3.18800000       0.00000000       0.00000000       0.00000000       0.00000000       0.00000000
W        4.78200000       1.59400000       1.59400000       0.00000000       0.00000000       0.00000000
W        3.18800000       0.00000000       3.18800000       0.00000000       0.00000000       0.00000000
W        4.78200000       1.59400000       4.78200000       0.00000000       0.00000000       0.00000000
W        3.18800000       3.18800000       0.00000000       0.00000000       0.00000000       0.00000000
W        4.78200000       4.78200000       1.59400000       0.00000000       0.00000000       0.00000000
W        3.18800000       3.18800000       3.18800000       0.00000000       0.00000000       0.00000000
W        4.78200000       4.78200000       4.78200000       0.00000000       0.00000000       0.00000000
16
Lattice="6.376 0.0 0.0 0.0 6.376 0.0 0.0 0.0 6.376" Properties=species:S:1:pos:R:3:momenta:R:3 Temperature=64.9775865002889 Step=500 energy=-203.8632978844455 free_energy=-203.8632978844455 pbc="T T T"
W        0.00139067       0.00379861      -0.04245887      -1.30790435       1.68032626       0.01450127
W        1.58893475       1.61064289       1.56583045      -0.11492156       0.68152914       1.16838245
W        0.02014636       0.01255278       3.18313897       2.19467787       0.98411549       0.25345319
W        1.61977736       1.59751909       4.77345889       1.36429995      -0.00207173       1.46131787
W       -0.03479742       3.22438099      -0.00568101      -0.00238503      -1.17567986      -0.91846652
W        1.62179315       4.79396541       1.58445121       1.02779316       0.02323564       0.44473079
W       -0.00818662       3.15944261       3.17046048      -1.06024448      -1.09994065      -1.05690173
W        1.61806199       4.74243243       4.80494938      -1.46017659      -0.07833007       2.18246269
W        3.18795923      -0.01056934       0.05597820       0.20577423      -1.52624916      -1.11292648
W        4.73386675       1.59589386       1.56771497       0.49712714       0.28266526      -0.84973786
W        3.17594199      -0.02666519       3.23170282       0.33406065       0.59104571      -0.63829865
W        4.78549383       1.55396983       4.80345711       0.76902758      -0.48528997      -1.04597640
W        3.17232632       3.18263529      -0.01294028      -1.80311679      -0.09114850      -1.56032921
W        4.79299093       4.80121297       1.62483266      -0.44397580       0.96882094       0.10573193
W        3.18906710       3.18216477       3.20340517      -0.46796453       0.46508027       1.74271781
W        4.79123359       4.83262300       4.74769984       0.26792855      -1.21810876      -0.19066116
16
Lattice="6.376 0.0 0.0 0.0 6.376 0.0 0.0 0.0 6.376" Properties=species:S:1:pos:R:3:momenta:R:3 Temperature=100.78524284768876 Step=1000 energy=-203.75164247296368 free_energy=-203.75164247296368 pbc="T T T"
W        0.02168320       0.01487802      -0.03791828       0.76078436      -2.03801227      -1.81495850
W        1.56863907       1.56613310       1.61947041      -2.43143841       1.19568797       0.93131658
W       -0.11316183      -0.05809029       3.23001427      -1.53146413      -0.35421512      -0.01255936
W        1.62392502       1.57933777       4.70973442       1.20515775      -0.94944483      -1.75704944
W        0.05971039       3.20856906       0.03923819       1.21162859       0.70043461      -0.02724064
W        1.63579577       4.79911314       1.53264773       1.05074075       0.05176016       0.04305162
W        0.03249101       3.17113577       3.23100029       0.14118822      -1.71379111      -0.80952920
W        1.59039531       4.77270343       4.74468970       1.50428938      -2.09550873       1.29301204
W        3.16606433       0.06751577      -0.00229952       0.13065351       1.10606084       3.52003665
W        4.79133601       1.57041610       1.60784378       0.58628526       1.30593430       0.29663617
W        3.17889371       0.00354799       3.17909577      -1.21625064       0.59283946       1.26437370
W        4.79472934       1.63201278       4.82537632       0.21304803       1.42053939      -1.64436392
W        3.21919222       3.18301247       0.05105186      -1.62457630       0.41566601      -1.29354081
W        4.77919035       4.72446703       1.56950284       2.32863427       0.16589412      -0.26437847
W        3.20064197       3.21978693       3.16641476      -0.82337730      -0.40805687       0.17007279
W        4.70647412       4.80146092       4.79013745      -1.50530334       0.60421209       0.10512079
16
Lattice="6.376 0.0 0.0 0.0 6.376 0.0 0.0 0.0 6.376" Properties=species:S:1:pos:R:3:momenta:R:3 Temperature=121.94135572421796 Step=1500 energy=-203.6779095553294 free_energy=-203.6779095553294 pbc="T T T"
W        0.03701581       0.02413546       0.07128820       1.21356984      -2.26951199       0.18476060
W        1.70449332       1.61539574       1.61495134       0.67807440      -0.79062297       0.30122406
W        0.04170414       0.10799957       3.22679983      -2.60314892      -0.25408438      -0.21068553
W        1.59056886       1.61212112       4.81594122       2.31920870       0.29285316      -3.74462200
W       -0.05035022       3.18848950       0.05059236       2.40261387       0.70654057       3.49458940
W        1.59994880       4.75190802       1.57479527      -0.60488990      -0.18265918      -0.23128177
W        0.01066410       3.15256360       3.19408382       2.79187826      -1.73767381      -0.25431252
W        1.57487597       4.78991663       4.77536490      -1.07909916      -0.56867665      -0.46813690
W        3.14581380      -0.03592967      -0.10008241      -0.79983410       1.39083573       0.20462331
W        4.76027171       1.55045481       1.58956886      -1.29919046       0.49971520       0.40433144
W        3.23585903      -0.01563447       3.16091180      -1.91226035      -0.60657658       0.18159850
W        4.78323223       1.54250977       4.76500760       1.63896214       1.80417821       0.99257658
W        3.20095593       3.23510319      -0.03664938      -1.20890390       1.54632722      -0.60172083
W        4.71948719       4.74439860       1.58626896      -0.13978201      -0.67271483      -1.35506800
W        3.12659751       3.20060979       3.23983916       0.34528306       0.74829594       1.02191354
W        4.77486183       4.79195834       4.72731845      -1.74248148       0.09377436       0.08021011
