16
Lattice="6.376 0.0 0.0 0.0 6.376 0.0 0.0 0.0 6.376" Properties=species:S:1:pos:R:3:momenta:R:3:forces:R:3 Temperature=1222.7073129856865 Step=119000 energy=-201.72372854659164 free_energy=-201.72372854659164 stress="-0.0313001047140791 -0.00066293440973203 0.0014239425990039307 -0.00066293440973203 -0.028938685767684023 0.0015606396795549236 0.0014239425990039307 0.0015606396795549236 -0.02751469147499293" pbc="T T T"
W       -0.06353415      -0.08049068      -0.01893861      -7.34352053      -2.53400563      -3.60261907      -0.42656974       0.93561630       0.50080997
W        1.49976195       1.44692759       1.55627758       5.94155443       8.81545832       4.67714271       0.82231740       0.97843899       0.73002914
W        0.05119700      -0.15812822       3.29363338       5.08447527      -1.10369501      -3.66040866      -0.75133555       0.69802501      -1.04264781
W        1.39243920       1.55875437       4.76965357      -6.54094855      -1.00195056       0.44444192       1.57520897       0.20386453      -0.34888817
W        0.14017033       3.23844116       0.11554516      -1.80863190       4.55674258       5.95882533      -1.29178374      -1.18572850      -1.17664326
W        1.68867124       4.80613803       1.49788840      -1.99545432      -2.84343872       1.71110574      -0.58560097       0.81875542       0.84112804
W        0.09586075       3.29513458       3.17012228       2.42277798      -6.92560895      -5.10843493      -0.59248351      -0.77715822       0.57506856
W        1.58824617       4.84350747       4.88068549      -3.49989064       3.47259884      -1.47626639       0.56073317      -0.08203512      -0.92624094
W        3.09277472       0.09892094      -0.06437499       1.91469804      -3.08051166       1.81735553       1.59793891       0.47024520       0.34413965
W        4.97802209       1.74139274       1.77241638       4.75339630      -7.54891022       5.27203426      -1.62353142      -1.08789540      -1.03956838
W        3.31429763       0.00241842       3.07905389      -6.67166475      -1.08152038      -2.78078788      -0.62036264       0.38766984       0.80301607
W        4.82628403       1.43361658       4.73506725       2.99185363       7.94583089      -0.59684877      -0.63731271       1.95409408       0.18657848
W        3.12218320       3.34037636       0.02124452       5.19707174       3.15950403      -1.09431968       0.76646367      -2.70562159      -0.71081589
W        4.77447844       4.63609190       1.47532717       0.90343358      -2.39053926      -7.21101283      -0.05932261       1.25241607       1.19168355
W        2.97816775       3.35294646       3.10770771      -5.73847881      -2.85159385      -0.47724975       1.73280756      -1.88592452       0.93053599
W        4.77697955       4.69995236       4.86469080       4.38932853       3.41163959       6.12704246      -0.46716679       0.02523791      -0.85818502
16
Lattice="6.376 0.0 0.0 0.0 6.376 0.0 0.0 0.0 6.376" Properties=species:S:1:pos:R:3:momenta:R:3:forces:R:3 Temperature=1010.0726737755664 Step=124000 energy=-201.7906068360831 free_energy=-201.7906068360831 stress="-0.030920083113070693 0.00013794090053315328 -0.00036567960974887877 0.00013794090053315328 -0.0385185680738633 -0.001307174958352642 -0.00036567960974887877 -0.001307174958352642 -0.031209617781578224" pbc="T T T"
W       -0.00427370       0.01734403      -0.02452588      -4.34185912       0.53272551       1.16092577       0.02469131       0.11703562       0.02919843
W        1.31349455       1.45020936       1.82501379      -0.43630910       4.10493066      -0.02105742       2.70634729       1.70677328      -2.32643273
W       -0.13405611       0.00009357       3.07532332       3.60331582       2.99825398      -2.88572616      -0.20285590      -1.08867425       1.33032702
W        1.68855873       1.64950102       4.68977388       4.08371791       3.71592442      -1.21953662      -0.54218322      -0.99521087       0.70436828
W        0.01788542       3.26946200      -0.16363646       0.43158755      -8.79693088       5.23495914       0.61378883      -1.25635507       1.15063468
W        1.61134358       4.85047672       1.61751031      -1.13054956      -0.96546172       6.69444968       0.17078423      -0.32368199      -0.69797298
W        0.18744301       3.37645924       3.08956072      -4.52526421      -2.46963807      -5.96232505      -1.73635671      -0.90441022       1.25257109
W        1.55988266       4.80223185       4.87440762       5.43479449       1.95773242      -0.25101526       1.10540297       0.75481561      -0.61583831
W        3.32150807      -0.01579785       0.04344501      -0.65510215       2.18033986      -2.14328236      -1.12886075       0.71760504       0.05989421
W        4.82476702       1.75942261       1.59394816      -2.83909398       1.62767171       0.39876854      -0.42002627      -1.07267292       0.13361017
W        3.10721996       0.00437563       3.14238145       2.66085887       2.90204947      -1.97932347       1.11613661      -0.21067181       0.50862824
W        4.92606001       1.46012034       4.75875809      -4.05223505       1.62439479      -0.22610825      -1.05495558       1.57039892      -0.27573967
W        3.18878323       3.12067764       0.08188807       8.93360138      -8.03793590      -9.41057601      -0.75429201      -0.61695931      -0.77259902
W        4.71128417       4.54163354       1.48359387      -3.51073365       5.35723424       0.93963600       0.36158719       1.86834203       0.92679772
W        3.13795192       3.19077273       3.21140177      -0.63678316      -2.46368128       6.58095716       0.47916896      -0.09755217       0.31507047
W        4.79814739       4.77901762       4.95715625      -3.01994605      -4.26760921       3.08925429      -0.73837696      -0.16878190      -1.72251760
16
Lattice="6.376 0.0 0.0 0.0 6.376 0.0 0.0 0.0 6.376" Properties=species:S:1:pos:R:3:momenta:R:3:forces:R:3 Temperature=914.775821149399 Step=129000 energy=-200.81305179775325 free_energy=-200.81305179775325 stress="-0.04471656177886352 0.0008669139325764069 0.0031957160542579782 0.0008669139325764069 -0.04907690850217895 0.0005241523013247828 0.0031957160542579782 0.0005241523013247828 -0.0414575514785283" pbc="T T T"
W       -0.01152437       0.10917937       0.05750281       6.67629632       4.50964897      -0.74139098       0.11854072      -1.12078119      -0.43921564
W        1.64894339       1.47094082       1.79197462      -1.24255028      -3.99995332      -1.73050539      -0.01705398       0.54544670      -1.84128230
W       -0.11296737      -0.15458766       3.16267432      -7.41490050      -2.48916150       1.91848797       0.89608402       0.73032066       0.65195065
W        1.64374398       1.59505876       4.69644376       2.22031231       3.83307328       4.13081756      -0.95639628      -1.19052052       0.50346780
W       -0.16910058       3.07116996      -0.02522859      -4.53819618      -4.99616474      -1.97466719       2.66107343       1.41208901       0.10705583
W        1.69043682       4.88631147       1.69821539       6.11616271      -4.26703142       1.11218121      -0.82545783      -0.72243464      -1.28919049
W        0.14600026       3.02828343       3.24100199       2.70373190      -3.88591170      -0.31136486      -1.28092812       1.63942590      -0.08534634
W        1.45539037       4.61701228       4.78293773      -4.02255175       0.74545864      -1.34882412       0.80723925       2.22317970       0.32790538
W        3.24449931       0.18695694      -0.18174449       0.72586982      -0.21485943       4.15216629      -1.28957132      -2.31076470       2.70007719
W        4.97923677       1.77446325       1.62530062      -2.59687263       4.08258715       3.69095594      -1.81229431      -1.73772711       0.06858445
W        3.45114710       0.06482341       3.09215170       5.16401232      -4.22239499       0.55740376      -1.69926543      -0.88520957       0.08116137
W        4.52555764       1.70689989       4.86167517       0.34705733       7.57809381      -5.09666491       3.49122182      -0.74122559      -2.14976231
W        3.15468064       3.15690326      -0.16097642      -3.09933525      -2.04417817      -6.69238908      -1.55603115       1.34467054       2.73126272
W        4.80923935       4.62954376       1.63062506      -3.94806472      -0.05276120       3.00968222       0.19847681       1.40096966      -0.95300581
W        3.17001872       3.26480189       3.14624353       6.32037292       0.95310742       2.94816174      -0.09860032       0.01144525      -0.24969621
W        4.63069790       4.84823922       4.83720278      -3.41134433       4.47044722      -3.62405016       1.36296269      -0.59888409      -0.16396630
16
Lattice="6.376 0.0 0.0 0.0 6.376 0.0 0.0 0.0 6.376" Properties=species:S:1:pos:R:3:momenta:R:3:forces:R:3 Temperature=938.5440921000575 Step=134000 energy=-201.2676584890118 free_energy=-201.2676584890118 stress="-0.038095969257569286 0.00022813081949244195 0.00022251097790196606 0.00022813081949244195 -0.039077891967193926 -0.0030093592761746652 0.00022251097790196606 -0.0030093592761746652 -0.039968605037579846" pbc="T T T"
W       -0.06340349       0.08500844      -0.04693970       6.32342255      -3.07980782      -1.13899896       0.30585842      -0.98500182       0.58987104
W        1.45669599       1.53960930       1.70065121      -1.30035127       5.74737390      -4.83908446       1.41101502       0.55987612      -0.75365552
W       -0.17208390       0.06725110       3.04320821      -1.87138942      -4.50929896       1.89489161       1.28586238      -0.77459786       1.01813990
W        1.61147112       1.72176899       4.66367322       1.93699483      -4.23903345       3.64748548      -0.66466498      -1.37476882       0.56827691
W        0.16986559       3.08862990      -0.01188853       1.93635686       2.07806291       3.45122414      -0.79636859       1.03280367       0.60581074
W        1.72931656       4.97779860       1.60942684      -1.84836731       9.89157904      -7.03224193      -1.41741671      -1.55379760       0.08148270
W       -0.12286782       3.32981620       3.09613341       4.49200579       0.18661640       2.52284958       1.97796813      -0.75034135       0.18827573
W        1.68503238       4.78896665       4.95666246      -5.72722125      -0.06008695       0.36694284      -0.99396713       0.07631357      -1.82718645
W        3.05355057      -0.06792260      -0.07374964      -4.57070284      -6.33493278      -0.68553955       1.64652877       1.08340163       0.51900992
W        4.80131540       1.69839393       1.62056350       1.70479107      -2.96100093       2.63233009      -0.77468483      -1.10586326      -0.46844575
W        3.34461215      -0.04436944       3.23876970       3.37981109       1.70095948       1.44367089      -1.51470188       0.68755516       0.20784844
W        4.79865827       1.52783012       4.83597796      -2.13224853      -4.77531824      -0.92299402       0.54723551       0.57526857      -0.67585764
W        3.33477133       3.02711337      -0.05390201      -0.29049997       2.92933451       3.39551350      -1.53284421       0.85558707       0.41067114
W        4.45330714       4.63425503       1.71234140       1.32193553       2.76938316      -8.02696337       2.66465939       1.46549573      -2.37601692
W        3.17193258       3.20321973       3.25902232      -7.65088768       1.76113173       3.46831612      -0.60349835      -0.55306422       0.10868212
W        5.00382607       4.67863072       4.70604963       4.29635054      -1.10496199      -0.17740195      -1.54098096       0.76113342       1.80309364
16
Lattice="6.376 0.0 0.0 0.0 6.376 0.0 0.0 0.0 6.376" Properties=species:S:1:pos:R:3:momenta:R:3:forces:R:3 Temperature=921.1278888549153 Step=139000 energy=-201.28876143785973 free_energy=-201.28876143785973 stress="-0.042719390801371646 0.002308503154434671 -0.0004016978476909304 0.002308503154434671 -0.03356642111059374 -0.002286880516195224 -0.0004016978476909304 -0.002286880516195224 -0.0376449117118011" pbc="T T T"
W        0.07822078      -0.05467439       0.04196849      -2.53947615      -2.82141692       5.05453266      -1.07125415       1.25519805       0.88995828
W        1.62225554       1.36970673       1.74454036      -3.01940030      -2.11138026      -1.57714743       0.21101226       1.60816217      -0.95673103
W       -0.05621854      -0.24762849       3.21484301       3.15879397      -1.70510200       1.87489280       0.64912275       1.85468088      -0.72684947
W        1.45769825       1.60814190       4.79274422       0.96645592       3.94767468      -3.05263425       0.94798724      -0.61068477      -0.74292557
W        0.05761326       3.16534387       0.01660335       4.29820355      -2.15651702      -1.67327247      -1.05174033      -0.20671757       0.64427337
W        1.69796792       4.73028330       1.39762412      -0.19590810      -2.61922241      -1.79010457      -0.27926694       0.46878271       2.48233343
W        0.03019411       3.18480498       3.14677998       5.00365148       0.94859442      -5.03685022      -0.29086349       0.05303003       0.04177512
W        1.38014538       4.77321118       4.97013948      -6.05449281       1.82333564       2.75607600       2.29666298       0.33080362      -2.92786286
W        3.26005097       0.12453916      -0.07761951      -3.08472001       0.62080756       3.78214209      -0.47109900       0.08693135       0.56480015
W        4.93929284       1.76498019       1.53854357      -0.00013509       0.08732448      -3.78196649      -1.56048661      -1.29056677       0.72069005
W        3.22365046      -0.00188368       3.23645819       5.01272972       1.15032035       2.86711477      -0.17233106       0.03175416      -0.04925242
W        4.90415936       1.57970868       4.83156199      -6.18546838      -4.15551047      -0.58787765      -0.92355904       0.86063760      -0.83623343
W        2.93086368       3.28589057      -0.16845846       5.38509667      -2.15191639       2.67917474       3.12347652      -1.82481552       0.83918801
W        4.69563121       4.88372942       1.66043955      -1.95996688       4.24998825      -5.26819190       0.07307333      -0.94002504      -0.94109016
W        3.19746634       3.10458699       3.03370055      -9.91224741      -2.26884842       0.71309570      -0.08707237       0.68207441       1.50522336
W        4.83700836       4.98525964       4.87613109       9.12688382       7.16186852       3.04101622      -1.39366209      -2.35924530      -0.50729685
16
Lattice="6.376 0.0 0.0 0.0 6.376 0.0 0.0 0.0 6.376" Properties=species:S:1:pos:R:3:momenta:R:3:forces:R:3 Temperature=1295.8828101670208 Step=144000 energy=-201.5850465920427 free_energy=-201.5850465920427 stress="-0.03194909372872081 0.002191800659999972 0.0011805284798798513 0.002191800659999972 -0.028124226325220426 0.0004355558419300226 0.0011805284798798513 0.0004355558419300226 -0.03593893885366778" pbc="T T T"
W        0.10795236       0.03037960      -0.14779212       0.96912448       1.47252107       2.83002692      -0.30441331       0.38819478       1.52192400
W        1.60658506       1.77116269       1.73828311      -1.55670079      -1.88544579       4.60277182      -0.40693741      -1.23623870      -0.96007204
W       -0.06895032      -0.01369790       3.05101738      -3.89535491       0.80080097      -0.68500313       0.08174819       0.16542817       0.84718288
W        1.51172820       1.71289259       4.66201765       7.93611657       4.71003077      -3.42955870       0.64739298      -0.69883684       0.67970613
W        0.06986519       3.24832806       0.08342274      -9.51436454      -3.01982690       6.85916520      -0.92916381      -0.69445396      -0.79500616
W        1.57141954       5.01157883       1.57557431       4.39605051       1.48909645      -6.38466144       0.45408187      -2.30786299       0.21800256
W        0.10671226       3.26391806       3.11858194       6.37703035       1.76545578       4.61030040      -1.80928145      -0.00844762       0.97986466
W        1.62497025       4.78275472       4.89376910      -0.57598850      -5.92574521      -8.13413249       0.09668899      -0.28610697      -1.37354170
W        3.19007551      -0.10148143      -0.00171278      10.15981212       2.54440822      -0.28437733      -0.28201397       1.03821962      -0.15303214
W        4.71396573       1.46633787       1.57216538       4.22851129       7.90200143      -3.15002722       0.57357118       0.95034474       0.26162205
W        2.99497631      -0.00895516       3.11847512       0.17758320       0.19800383       2.22370358       2.09152152      -0.24966707       1.13957315
W        4.83873450       1.33462446       4.87371781      -4.57533090       0.61635539      -0.52108975      -0.75970176       2.38566582      -1.14748951
W        3.02841754       2.97685251       0.10318146       3.79676379      -2.15765539      -0.92643792       1.97009243       1.58864222      -1.08531433
W        4.82008270       4.70087485       1.49360408     -11.24335632      -3.68093256       1.17800716      -0.74753376       0.28143767       0.57213580
W        3.25733539       3.12635280       3.25252566      -2.53520409      -4.77520572       4.01385663       0.38498509       0.84555305       0.12798226
W        4.88212970       4.95407750       4.86916913      -4.14469228      -0.05386234      -2.80254372      -1.06103676      -2.16187191      -0.83353759
16
Lattice="6.376 0.0 0.0 0.0 6.376 0.0 0.0 0.0 6.376" Properties=species:S:1:pos:R:3:momenta:R:3:forces:R:3 Temperature=1390.658550772565 Step=149000 energy=-200.95061119450662 free_energy=-200.95061119450662 stress="-0.040489745575731775 -0.0037760233156395547 -0.000830857977028827 -0.0037760233156395547 -0.03651626617573944 0.0016869460375276888 -0.000830857977028827 0.0016869460375276888 -0.044902882718826906" pbc="T T T"
W       -0.03830738       0.20325449       0.21899015       0.45596681       1.60830588      -4.68011728       1.01995278      -1.38711214      -1.32624630
W        1.80967514       1.48494346       1.76093756      -7.82588565       0.15442266      -7.60574256      -1.44350905       0.59340647      -1.06004532
W        0.13290488      -0.14107039       3.24148061      -7.13006443      -1.28170167      -1.08571096      -1.18858049       0.68323609      -0.38910816
W        1.60844785       1.78509361       4.47697909      -3.42765659       2.51029140      -1.95753291      -1.12227754      -2.01296251       2.16711623
W        0.06146526       3.06618154       0.01429703      -3.30167752      -1.00562664       1.82726237      -0.29130327       0.87522019       0.35525156
W        1.61174468       4.67047228       1.66573334       5.91787661       8.16614261      -0.48202425      -0.03911475       0.56167572      -0.83357456
W       -0.20763762       3.10422976       2.95445191       3.16636206      -1.85184208      -1.55294805       1.39692646       0.94111887       1.14865790
W        1.61082846       4.53493078       4.80620480       1.52703437      -3.49674555       6.84866588      -1.77482640       2.32094391       0.12251162
W        3.10154459       0.09211903      -0.03877826       3.27778570      -2.33651862       0.71830228      -0.30578811      -0.50709402       0.08115102
W        4.58443288       1.70425057       1.60174698      -1.53014286       4.58707639       0.22538779       1.21770806      -1.66028456      -0.11253719
W        3.24030046      -0.09018274       3.35015851       0.92007822       0.49144313       2.21109434      -0.51023273       0.64332636      -1.21851350
W        4.86817249       1.69306680       4.88111932      -2.02584536       4.08021049       2.09706731       0.21260005      -1.33610926      -1.11357926
W        3.24562504       3.16085880      -0.22488439       7.19967391       0.88507807      -0.23900931      -0.74998348       0.22305035       2.31117108
W        4.76717462       4.85575899       1.47716775      -4.17915400     -13.21320744       4.07541168      -0.05417171       0.16396146       0.24794284
W        3.24993368       3.22061550       3.28810215       8.42794740       4.24006168       9.97889179       0.47468085       0.54076426      -1.51306724
W        4.60969490       4.91147758       4.78229341      -1.47229867      -3.53739030     -10.37899812       3.15791934      -0.64314119       1.13286928
16
Lattice="6.376 0.0 0.0 0.0 6.376 0.0 0.0 0.0 6.376" Properties=species:S:1:pos:R:3:momenta:R:3:forces:R:3 Temperature=1517.0158875275495 Step=154000 energy=-201.1713942002254 free_energy=-201.1713942002254 stress="-0.03489711249091376 -0.0010559254931647947 0.0026545179940745964 -0.0010559254931647947 -0.03790601068657638 0.0025221508438248736 0.0026545179940745964 0.0025221508438248736 -0.031636538581000635" pbc="T T T"
W        0.08477423       0.09481571      -0.06777843      -4.95965563      -0.87548055       3.21518055      -0.01445077      -0.03125778       0.55234469
W        1.59773785       1.78486022       1.90972987       5.04816302      -9.06064003       1.38403194      -0.01949982      -1.06970644      -1.79570508
W        0.08609967      -0.08683992       3.22255142       6.44121579      -3.65752629       9.21254801      -0.17390610       0.54302606      -0.30441731
W        1.43198077       1.86339687       4.67980834      -4.78258911      -0.23681800       2.14840513       1.83084120      -1.77832915       0.03770666
W       -0.01508378       2.98108629       0.11710166       2.61646147       3.23821033       1.01807548       0.06514914       0.88548943       0.03582219
W        1.51077742       4.89145363       1.30358161       1.84085411       0.12020410      -3.84100414       0.93721469      -0.97484182       2.27243313
W       -0.26271710       3.28590940       3.35565291       1.02901730       0.56876786      -5.29787588       2.02182656      -0.31935223      -1.89975969
W        1.64047758       4.66172956       4.83207800     -13.22217789      -0.00188533       7.05762220      -0.32848147       0.33594676      -0.40405637
W        3.08133758      -0.06796246      -0.22549109      -0.82415117      -3.16868854       0.68860040       0.05219928       1.16535728       1.50364445
W        4.62730276       1.56507863       1.55249831      -2.02094846       5.51676078       1.20037623       1.19064258      -1.04935726       0.70640751
W        3.23318006      -0.06732235       3.13778773       5.13044324       3.14474659      -4.70888623      -0.96165261       0.08622583       0.15997469
W        4.79206844       1.46250517       4.67613684      11.57984051      -6.01881759       4.98412850      -0.45890242       0.09006395       0.61782224
W        3.29473653       3.02137201       0.02249438      -2.26586069       1.80603587      -0.67346002      -1.19768309       0.82554587      -0.03596607
W        4.86517259       4.84391519       1.62134901       0.81294402       2.08378151      -2.45862081      -0.49104189       0.46975190      -1.38988534
W        3.48206262       3.34161053       3.15330656      -6.64160322      -2.41521366      -8.11833996      -2.52373705      -0.49549182       0.01337539
W        4.80609271       4.68039156       4.96519284       0.21804668       8.95656294      -5.81078140       0.07148178       1.31692941      -0.06974108
16
Lattice="6.376 0.0 0.0 0.0 6.376 0.0 0.0 0.0 6.376" Properties=species:S:1:pos:R:3:momenta:R:3:forces:R:3 Temperature=1108.1834642701062 Step=159000 energy=-200.55621263341544 free_energy=-200.55621263341544 stress="-0.045466821149806456 -0.0012575415675239558 0.0013311576072195248 -0.0012575415675239558 -0.03649001388257648 0.005919071287404136 0.0013311576072195248 0.005919071287404136 -0.04991647592538537" pbc="T T T"
W        0.34403307       0.08777186      -0.08186692       0.81241778      -2.13491771      -3.65109789      -1.71668417      -0.14321674       0.67095475
W        1.74743822       1.71711841       1.66793184      -1.15769639      -0.11532932       4.96357149      -2.17879506      -1.07962334       0.37823681
W       -0.10135652      -0.11794549       3.18106494       0.95420033      -6.22946734      -8.89671479       0.92128308       0.89399906       0.38384896
W        1.41261584       1.48512408       4.55595816      -5.07383226       1.32594679       2.96118046       2.41523662       1.57092441       0.72588133
W       -0.09042520       3.18582652      -0.08541765       5.98781389       5.13135017       5.06920563       0.52653736      -0.15627599       0.18900831
W        1.42866426       4.64744559       1.63171602      -1.02030352       6.83341665      -2.50620451       0.72254974       0.52376146       0.10700594
W       -0.09869076       3.23134564       3.18514612       0.07250301       4.29878038      -3.24519521      -0.46712661      -0.36429331       0.51031309
W        1.59594552       4.66846968       4.76109250       4.75927121       2.58943405       0.73296999       0.47441286      -0.03944339      -0.21050581
W        3.05889887       0.08454341       0.21210711       3.40119115      -2.53698591      -1.42129026       0.11179321      -0.30223932      -1.95965071
W        4.85568648       1.43784937       1.53462809      -6.92286696      -5.33992204      -5.60886421       0.09498117       0.90172558      -0.01428467
W        3.14985643      -0.27896758       3.10869082      -8.11557800      -2.00440365      -0.39466678       0.32076620       1.60594189       1.03921287
W        4.79688772       1.63460889       4.84342592      -0.99211925      -4.82834308      -3.80809131      -1.06422458      -0.41293055      -0.28224959
W        3.06075910       3.30651788       0.24193536       4.48886461       2.50084063      -0.77043387       1.49036989      -0.89863361      -2.75918743
W        4.83478075       4.94034236       1.51542110       4.04814594      -1.66526445       8.20594887       0.07046043      -0.95236266      -0.24303993
W        3.41605456       3.07951959       2.92935978      -4.33616993      -2.41140905       5.10504612      -0.71177367       1.10192710       2.76366399
W        4.84485158       5.14642984       5.05480677       3.09415837       4.58627389       3.26463628      -1.00978647      -2.24926059      -1.29920791
16
Lattice="6.376 0.0 0.0 0.0 6.376 0.0 0.0 0.0 6.376" Properties=species:S:1:pos:R:3:momenta:R:3:forces:R:3 Temperature=1508.8267360940047 Step=164000 energy=-200.8946580281566 free_energy=-200.8946580281566 stress="-0.06425321776059156 -0.0020525700735955156 0.005320333090742907 -0.0020525700735955156 -0.02764832990295725 0.0001281688622104987 0.005320333090742907 0.0001281688622104987 -0.04623800723503662" pbc="T T T"
W        0.17833769      -0.14544971       0.07234458       5.67687996       4.06343200      -0.67127833       0.96406379       2.76246187      -2.40979550
W        1.52518494       1.77016324       1.78538386       5.34750523      -0.93312964       5.16674340      -0.09085527      -1.03928055      -0.45242258
W       -0.08222268      -0.15233722       3.36360048       1.81820469      -0.92024592      -0.21714099       0.29495759       1.81439035      -0.25005667
W        1.76122105       1.68575953       4.71839292      -0.86347102       3.29235658      -6.09306209      -1.18242765      -0.73103589      -0.49009172
W        0.14156492       3.14781534      -0.14135015      -9.55258492      -1.34917565       0.62245437      -1.04903165      -0.36476873       0.84057123
W        1.41555879       4.82313479       1.80617929      -7.60958289      -3.21766402      -2.14499508       1.36703322      -0.89148802      -0.75003754
W       -0.16630444       3.30729212       3.27641886      10.90836391      -0.51932610      -3.05838819       0.03273850      -1.24919440      -0.32300783
W        1.73441731       4.73694931       4.71295218       8.39284435      -8.74046712      -1.41999526      -0.70760238      -0.01197836      -0.58301161
W        2.90115700      -0.11733387       0.03031540      -0.10054704       4.24961734      -4.34143120       1.52391404       1.43475415       0.49281064
W        4.91472116       1.37538324       1.58732270       0.52548890       1.41568858       1.78727487      -0.74597012       2.03060909      -0.39374701
W        3.25948841       0.09123152       3.05262257      -4.43363906       4.39152924       6.98474738      -0.12282987      -0.39892319       0.60595012
W        4.73285029       1.47881197       4.96068125       1.60998466       6.65366275       9.03872741       0.04598843       0.48779051      -0.74458078
W        2.99390396       3.14356942      -0.05873208      -6.60783885       0.68458414      -8.80252747       1.89366975       0.06008061       1.58093787
W        4.99499448       5.03907370       1.23240074      -6.28476608      -2.72250014       3.69039782      -3.09598478      -3.07019312       2.77798168
W        3.29880438       3.30220026       3.04810050       5.76805551      -4.94789088       3.15647741       0.58775614      -0.76069976      -0.15144099
W        4.65232266       4.76973643       4.80936688      -4.59489734      -1.40047118      -3.69800405       0.28458024      -0.07252458       0.24994068
16
Lattice="6.376 0.0 0.0 0.0 6.376 0.0 0.0 0.0 6.376" Properties=species:S:1:pos:R:3:momenta:R:3:forces:R:3 Temperature=1104.1160650479442 Step=169000 energy=-200.78695740384237 free_energy=-200.78695740384237 stress="-0.04713049475896897 -0.00023425457298792556 0.00010853421565049403 -0.00023425457298792556 -0.029334717364571567 0.0001239343238515936 0.00010853421565049403 0.0001239343238515936 -0.04308368629270921" pbc="T T T"
W        0.14680597       0.22705240      -0.33525895       6.15058901       3.71529102      -5.60814444      -0.48036386      -1.98655637       2.03447646
W        1.52955239       1.66591431       1.61843151      -1.44289498       4.28306974       2.90257631      -0.19933093      -0.36547317       0.13433089