16
Lattice="6.376 0.0 0.0 0.0 6.376 0.0 0.0 0.0 6.376" Properties=species:S:1:pos:R:3:momenta:R:3:forces:R:3 Temperature=922.12469639494 Step=162500 energy=-202.6116448416749 free_energy=-202.6116448416749 stress="-0.020801010229988717 0.0002485997567277827 -8.05422077925868e-05 0.0002485997567277827 -0.01886457324993954 -0.0004177637166934592 -8.05422077925868e-05 -0.0004177637166934592 -0.01680514130000782" pbc="T T T"
W       -0.04099574       0.02356841       0.04561259       3.28970145      -6.04321907      -0.90217403       0.35353710      -0.27373814      -0.32401832
W        1.53777988       1.49546445       1.52313415      -1.32765957       3.50855154      -1.56392217       0.91523078       0.41409014       0.62346363
W       -0.03925808       0.00799788       3.26238164      -4.51921294      -3.93921621      -0.84373023       0.30122716      -0.16876511      -0.72943670
W        1.54146341       1.57245599       4.76169172      -2.09328151       6.76320649       0.27792249       0.75353988       0.15074703       0.34803100
W        0.00360130       3.09016637       0.00810787       0.70266611      -4.44452245       5.31223408       0.43348028       0.77554060      -0.26363989
W        1.51909435       4.72734778       1.65185942       0.10135062      -3.97021302       3.76781794       0.86745585       0.46461337      -0.62026596
W        0.08851495       3.08900838       3.06524547       3.93827221      -1.00940767      -6.13749618      -0.49712429       0.80385162       0.75310073
W        1.39718605       4.82956221       4.77762305       2.59606176       6.12434746      -8.02784857       1.85732264      -0.36030185       0.37469016
W        3.37806372       0.07031237       0.14666296      -0.98996488      -1.93207222       0.03853055      -2.08471786      -0.99564617      -1.76976363
W        4.69951964       1.56912615       1.61883328       4.83039487      -3.19479996       3.26232501       0.63854791       0.54264840       0.28478088
W        3.26095090       0.06414760       3.27288898       1.87566555      -1.12370464       3.22553703      -1.00753550      -0.93433438      -0.17559939
W        4.74010744       1.74834220       4.75214878      -1.24726674       3.45692762       4.47348598       0.36695906      -0.93117177       0.04373280
W        3.35182118       3.20031488      -0.01959632      -1.72976468       3.00947461      -9.72998626      -2.07573559       0.40349093      -0.14444146
W        4.75660796       4.74735117       1.45896661      -2.04823694      -5.39144281       1.35935230       0.33555630       0.01703186       1.61676725
W        3.19133496       3.18221682       3.18994292      -2.25969947       3.26618142       5.25638746      -0.53165764       0.59556900      -0.03084042
W        4.87020809       4.83861740       4.74049689      -1.11902585       4.91990891       0.23156458      -0.62608607      -0.50362552       0.01343932
16
Lattice="6.376 0.0 0.0 0.0 6.376 0.0 0.0 0.0 6.376" Properties=species:S:1:pos:R:3:momenta:R:3:forces:R:3 Temperature=514.3291183963845 Step=98500 energy=-202.5420132447069 free_energy=-202.5420132447069 stress="-0.016271205462772192 0.002496640116763034 0.0005244551507084628 0.002496640116763034 -0.019600374385292108 -0.0014852051810509284 0.0005244551507084628 -0.0014852051810509284 -0.015810354054139816" pbc="T T T"
W       -0.05485976       0.01560344      -0.04682577      -2.08217901       1.36787072       1.90731926       0.25372335      -0.56717111       0.05607898
W        1.45262685       1.42831940       1.53919607      -1.76256308      -3.61282867      -1.57742104       0.92737440       1.22735698       0.13110617
W       -0.11598025       0.03293434       3.23094834      -2.91507092      -1.21528596       2.55610469       0.39018796      -0.58490399      -0.03866368
W        1.51792003       1.49270941       4.68929114      -0.48618689      -1.76873306      -1.40565190       0.72432975       0.76372922       0.90177169
W        0.12743033       3.14247130       0.00890700      -1.64703691      -2.20377021      -4.52406560      -0.31137230       0.55791972      -0.17116163
W        1.56072885       4.82735003       1.54036355       0.62073722       4.41067941       3.41711438       0.12368866      -0.29773116       0.44816391
W        0.01443225       2.99539543       3.29974929      -1.92440664      -3.45175081       2.77417203       0.08925879       1.72543210      -0.80132052
W        1.82378774       4.90599249       4.66259465       4.04135515      -0.40381341       1.85075448      -1.69593100      -1.10469267       0.80779130
W        3.25738093       0.01780243       0.01620136      -5.15858742      -1.12761996       0.13860874      -0.47994495      -0.47037803       0.27543375
W        4.78744035       1.67540314       1.56633222       2.01384361       0.62573753      -0.31581002      -0.04318480      -0.13927988       0.28575130
W        3.20772687       0.11741113       3.18579612       2.81937735      -0.72743826      -0.14385525       0.01582317      -0.97803824      -0.62759743
W        4.54161805       1.62265734       4.84237525      -2.42949061       2.30895051       0.31683503       1.70025790       0.13473644      -0.39570597
W        3.30733851       3.20771072      -0.00092020      -1.87210029       5.76319960       2.75203583      -1.56904302       0.32010682       0.59332135
W        4.86671786       4.85627261       1.70002422      -3.21716546      -1.56183915      -0.59745824      -0.11111323      -0.91812099      -0.55611491
W        3.13343461       3.26146243       3.14706977       6.85659796       2.09487447      -3.44124426       0.03434464      -0.41941753      -0.20675226
W        4.82825681       4.65650445       4.87489698       7.14287592      -0.49823275      -3.70743813      -0.04839931       0.75045231      -0.70210205
16
Lattice="6.376 0.0 0.0 0.0 6.376 0.0 0.0 0.0 6.376" Properties=species:S:1:pos:R:3:momenta:R:3:forces:R:3 Temperature=868.0118669896494 Step=57500 energy=-201.9905331030397 free_energy=-201.9905331030397 stress="-0.03012726005737359 -0.002395562794056574 0.00036636907791928947 -0.002395562794056574 -0.02700683439019788 0.0011296779600885147 0.00036636907791928947 0.0011296779600885147 -0.024156693744150835" pbc="T T T"
W        0.05076772       0.07654031      -0.13846148       4.70016415      -3.65050071       3.92714863      -1.42155820      -1.72664822       0.67411035
W        1.55388760       1.33696509       1.58572060       0.22594846       0.83525080      -0.69672221       0.54086916       2.21952169      -0.29334193
W        0.04726498       0.01203767       3.05790922      -6.75777694      -0.64477048       0.33497309      -0.87486260      -0.68726628       1.88580739
W        1.63304029       1.51792153       4.98948942      -1.10587602      -1.77178927      -3.71899515      -0.08375521       1.10687968      -2.21324625
W        0.06792437       3.11386669      -0.09549978       3.54696001       1.43798109       3.64016084      -0.89962547       1.10456713       1.22789496
W        1.51293964       4.83162075       1.54837411       0.94553890       3.45604618       4.61451778       0.70048856      -0.51385598       0.41182202
W        0.07798105       3.13164364       3.16210119      -3.45631823      -1.26704674       1.04618215      -0.45773749       0.46505896       0.03118658
W        1.60690769       4.81257329       4.82152102      -0.02757621      -2.88060214       5.13188354       0.00825940      -0.16279792      -0.70780125
W        3.33442353       0.05778359      -0.08272172       0.22027377      -0.85329462      -4.57464818      -0.55837749      -1.09423252       0.91111141
W        4.80997493       1.38919743       1.61300577      -2.02578848       6.73219815      -0.04258197       0.05769868       2.39779469      -0.34673993
W        3.21224650       0.27225048       3.18069464       6.35839463       1.78989365       6.68222450       0.09259492      -2.60139957       0.50304694
W        4.72751506       1.79825461       4.82414445      -6.71993009      -0.78435339      -6.81803244       0.73925311      -0.73418971      -0.60809085
W        3.06319552       3.20732493       0.03480996      -0.00404112       0.67867226      -5.05823232       1.05860309       0.23949030       0.63134147
W        4.74041248       4.69816592       1.70344004       5.19756804      -3.56685234      -0.97044543       0.33108265       0.12217550      -0.72402412
W        3.12949518       3.18356053       3.23032997      -6.92245477       1.66997860      -5.04485611      -0.02777744       0.35789254      -0.60889605
W        4.68802343       4.81629360       4.82114258       5.82491392      -1.18081102       1.54742327       0.79484431      -0.49299029      -0.77418074
16
Lattice="6.376 0.0 0.0 0.0 6.376 0.0 0.0 0.0 6.376" Properties=species:S:1:pos:R:3:momenta:R:3:forces:R:3 Temperature=528.7877577823024 Step=127500 energy=-202.314749174692 free_energy=-202.314749174692 stress="-0.02110204403076318 0.00010974974450393444 0.0008998780795630121 0.00010974974450393444 -0.020221715962484392 -0.0008581841824531993 0.0008998780795630121 -0.0008581841824531993 -0.016933622178209054" pbc="T T T"
W       -0.05616116       0.09945973       0.02712410       3.87712015      -1.61625581      -0.94419525       0.56421703      -0.16191048      -0.32435673
W        1.59215647       1.62815349       1.63689207       1.97576529      -0.86259381      -2.78993642       0.94492136      -0.16642827      -0.53939681
W        0.10330800       0.04887125       3.13236305      -0.30006415       2.52100297      -4.66282642      -0.53684156      -0.34275531       0.22227644
W        1.50782991       1.41572393       4.75073103       3.01802531      -1.85004126      -0.34763321       1.04519899       1.98290021       0.54770019
W       -0.02747296       3.21129225       0.05344030      -4.82215041       1.21574676       1.33818661      -0.17221640      -0.58006916      -0.10295931
W        1.55912150       4.69693151       1.60966858       4.46813620      -1.34704281       7.50546559       0.47098359       0.48047929      -0.76033306
W       -0.00516302       3.18048766       3.18158923       0.13802279      -2.31208135      -4.15267796       0.15043860      -0.00055596      -0.17162292
W        1.41054131       4.70981863       4.83488164       1.63272413      -0.14011496      -6.18479463       1.47767962      -0.30523498       0.38969417
W        3.22280916       0.03612379      -0.16023223      -0.76318242       4.83699029       4.54490114      -0.57094282      -0.44132450       1.01773649
W        4.81291908       1.54043229       1.62159907      -5.88482074      -2.71734292       0.25765069      -1.09769273       0.63512008      -0.11989815
W        3.08639957      -0.25189534       3.19941315      -0.69809036       1.83635778      -0.93075707       0.26002345       1.61358696       0.13666959
W        4.68366154       1.61544597       4.60504509      -0.70535364      -1.17704762       0.74227438       0.42514050      -0.24337211       1.14752481
W        3.29821419       3.15640458       0.12318100       2.95551413      -0.39911283      -1.13886676      -0.57645818       0.33984085      -1.11010442
W        4.76923798       5.05334702       1.64669616      -4.13681348      -1.43641044       3.53381068       0.18209164      -1.96725660      -0.81927622
W        3.30300298       3.30181067       3.25358491      -0.83692515       2.41043149      -0.99057314      -1.06879578      -0.76037012      -0.16701330
W        4.99559545       4.81359263       4.74002283       0.08209235       1.03751453       4.21997177      -1.49774729      -0.08264990       0.65335923
16
Lattice="6.376 0.0 0.0 0.0 6.376 0.0 0.0 0.0 6.376" Properties=species:S:1:pos:R:3:momenta:R:3:forces:R:3 Temperature=567.3795484871879 Step=267500 energy=-202.64561925656395 free_energy=-202.64561925656395 stress="-0.015553969518128822 0.0009461585743080231 -0.00015524852974148142 0.0009461585743080231 -0.018379478413834048 1.4896428236978541e-05 -0.00015524852974148142 1.4896428236978541e-05 -0.014732058247991212" pbc="T T T"
W       -0.10195097      -0.06888648       0.05138751      -2.63246526      -0.43887015       2.39374530       0.74859022       0.68989973      -0.07056827
W        1.63413385       1.62749247       1.62878052       3.77841755       4.27885389       0.78905240      -0.31999605      -0.07028164      -0.24216761
W        0.02341378       0.00959954       3.25738563      -5.61486896      -0.92074461      -0.32631707       0.21829915      -0.77231702      -0.68272796
W        1.45907297       1.65235799       4.78624934       0.59119529      -2.00206934      -0.01290390       0.75198882      -0.57673396       0.00894858
W       -0.03651727       3.27893599       0.06392849      -2.39594406      -2.01463374       2.97131622       0.12310570      -0.62623796      -0.65265321
W        1.63472080       4.81436416       1.41792648       0.51317428      -2.00360145      -0.92930599      -0.05048890      -0.32536514       1.29428921
W        0.02731285       3.13791742       3.19205149       3.15111372       3.10640661       1.19859454       0.23685683       1.04632884       0.05495741
W        1.68813972       4.74511491       4.96218029      -0.00841807      -2.15676789       4.73062363      -0.87440141       0.27813333      -1.09854355
W        3.19537654       0.20440497      -0.00934162      -2.76943744       1.11392909      -5.68657887      -0.24084974      -1.22810825       0.24492621
W        4.90776984       1.70800236       1.51074968       3.91772203       0.56417714       1.81381761      -0.84374563      -1.17706190       1.15142048
W        3.12182918      -0.17892642       3.23129207      -1.15756375       5.58624751      -1.29925432      -0.03836768       1.68795925      -0.53853832
W        4.77941482       1.44705311       4.68477663       5.80831202      -5.13446488      -6.98572433       0.26891094       1.06230089       0.12274116
W        3.25150627       3.07077244      -0.12683190      -1.01436563      -3.76826489       1.48192218      -0.22999066       0.68400541       0.82254379
W        4.68466484       4.78079774       1.68361875       3.11316420       1.46891324      -0.22096798       0.61888457       0.28456623      -0.79832076
W        3.27408926       3.20207624       3.15806569      -1.13941855       3.39992893       2.58073560      -0.94167137      -0.50233089       0.11537245
W        4.71302351       4.82492362       4.76378095      -4.14061737      -1.07903945      -2.49875504       0.57287520      -0.45475691       0.26832037
16
Lattice="6.376 0.0 0.0 0.0 6.376 0.0 0.0 0.0 6.376" Properties=species:S:1:pos:R:3:momenta:R:3:forces:R:3 Temperature=612.9066315096353 Step=78500 energy=-202.54382442258878 free_energy=-202.54382442258878 stress="-0.02180094352496845 -0.0017262321439423353 0.0006944776906330013 -0.0017262321439423353 -0.018018151867003333 0.0009552873075018312 0.0006944776906330013 0.0009552873075018312 -0.02343737295160992" pbc="T T T"
W       -0.01822672       0.13122535      -0.05560085      -4.18337805      -3.48180548       2.65456678       0.31489702      -0.68769119       0.29813228
W        1.59577953       1.58496242       1.69541730       1.02897648      -0.15717185       0.52183286      -0.51360496       0.05213835      -0.44167339
W       -0.13922681      -0.05397948       3.34174373       1.06770528      -2.29188211       1.53265046       1.48707931       0.36908758      -1.31530034
W        1.60916486       1.56349194       4.64319960       4.96887808      -0.27803122       3.07156107       0.21754617      -0.03268657       0.93210127
W        0.03288280       3.02669573      -0.03720502       0.78364479       2.88661064      -1.51647685      -0.12603455       0.93927309      -0.23010386
W        1.59953161       4.71812111       1.47659212      -9.09145478      -0.92729386      -1.62304464      -0.92603811       0.55688416       1.10946089
W       -0.00828183       3.10063396       3.20481457       5.95795538       1.26795260      -0.50023264       0.16302664       0.59740458       0.31290045
W        1.71997962       4.67506133       4.70608069       1.15883402       3.80574876      -1.73478398      -1.00810336       0.94597430       0.40101419
W        3.09100492       0.08714378       0.16627966       0.86905077       0.26869064      -0.31193555       0.35688746      -0.48803669      -1.35217519
W        4.69179891       1.65685166       1.69584976      -0.92106356      -1.15765905      -3.91041772       1.07078559      -0.45319812      -1.13077073
W        3.27272614      -0.06559711       3.02068750       1.66628128      -2.64624959      -3.52788396      -0.82554972      -0.15626662       1.14475009
W        4.60354429       1.58664404       4.80842767      -0.70620588       4.83500684       4.93497880       0.74946894       0.10858526       0.40593041
W        3.11809146       3.35342299       0.09010602       3.71115105      -2.42367356      -0.23418185       0.68212366      -1.29661193      -0.86518716
W        4.90470524       4.80219426       1.55008561       3.71866783       3.09491341       2.25803151      -0.03640811      -0.04896855      -0.35414563
W        3.35626118       3.19659048       3.19124847      -0.93504709      -3.03170792      -1.20624162      -1.25335169       0.64579600      -0.08550364
W        4.82626480       4.89253764       4.75827316      -9.09399557       0.23655174      -0.40842268      -0.35272430      -1.05168366       1.17057036
16
Lattice="6.376 0.0 0.0 0.0 6.376 0.0 0.0 0.0 6.376" Properties=species:S:1:pos:R:3:momenta:R:3:forces:R:3 Temperature=853.7872008641683 Step=138500 energy=-202.49299356458653 free_energy=-202.49299356458653 stress="-0.023157771906054208 0.0012725161552020004 9.469483594579449e-05 0.0012725161552020004 -0.012739423227520174 0.0012042909537977214 9.469483594579449e-05 0.0012042909537977214 -0.02416254948631707" pbc="T T T"
W       -0.09233936      -0.01176171       0.05531102      -0.41744273       1.97459982       1.74367640       0.86562953      -0.49435384      -0.30081430
W        1.66437679       1.41637021       1.61855477       0.26947261       4.57126027       4.14745475      -0.67285158       1.75908941      -0.29427570
W        0.01883057       0.06235892       3.07482666       0.18942178       0.02620023      -4.28302214      -1.02165407      -0.92244307       0.74280428
W        1.56744722       1.46327634       4.70198568       1.19218579       6.04890480      -5.48580682      -0.27057192       0.78627120       0.62892059
W        0.19212901       3.11078513       0.05579773      -1.44980131       1.39549513      -6.31009887      -1.13069824       0.64484050      -0.40863668
W        1.69517774       4.77097496       1.83783837      -0.49650786      -0.42494127       8.32523998      -0.84935741       0.03044510      -1.99234253
W       -0.11760961       3.13129954       3.07631379      -4.86615666       2.68055566      -0.40291415       0.90220405       0.68794119       0.80202093
W        1.62888615       4.77935942       4.71484932      -3.23237780       4.31454980      -2.88736886      -0.93974788       0.29354879       0.75463638
W        3.17355725       0.02770806       0.05522997      -0.60601470       2.23805991      -1.36050942       0.17666290      -0.54994705      -0.91737387
W        4.71369284       1.69115845       1.57449241       3.99567843       2.00740273       0.23618690       0.43128571      -0.01609233      -0.60566673
W        3.24999262       0.20690172       3.17386006       7.56007010       1.05337629       0.84035152       0.58219238      -1.67957148       0.82199704
W        4.87902690       1.59007298       4.76071514       1.78960357      -6.71976586       1.93286645      -0.37212362       0.36336988       0.62649580
W        3.05300110       3.13142293      -0.10139976      -2.55682590      -8.14609160       5.96016903       0.68316665       0.53167785       0.57017207
W        4.70501328       4.81719817       1.51137231      -1.95868794      -1.78690998       2.05771626       0.44339590      -0.53088407       0.35197432
W        3.14237709       3.34016263       3.30479502      -0.96569864      -4.74608299      -5.51453777       0.67919892      -1.30527833      -0.57826282
W        4.78244041       4.72871235       4.84145752       1.55308127      -4.48661292       1.00059675       0.49326868       0.40138623      -0.20164879
16
Lattice="6.376 0.0 0.0 0.0 6.376 0.0 0.0 0.0 6.376" Properties=species:S:1:pos:R:3:momenta:R:3:forces:R:3 Temperature=899.1922341025358 Step=122500 energy=-202.11618800481637 free_energy=-202.11618800481637 stress="-0.021804128962569374 0.0010588283051584603 0.001044916794076234 0.0010588283051584603 -0.024627337943979817 0.0010683579411617022 0.001044916794076234 0.0010683579411617022 -0.025953208184168908" pbc="T T T"
W       -0.08974414       0.04298356      -0.06978211      -0.82301039     -10.98709089      -0.47984101       0.86983300      -0.66156031       1.25087163
W        1.46743230       1.69513845       1.51808758      -2.84183173     -11.27087929      -3.59379265       1.60141720      -1.51723106       0.05040119
W       -0.07046437       0.04107759       3.36902664      -0.06026118       5.67572842       3.60306465       0.39124580      -0.33248863      -1.80446652
W        1.51198906       1.66544016       4.75666435       3.55051772       0.45209279      -2.60593834       1.20098711      -0.76997718       0.58987328
W        0.18489300       3.34098795      -0.06293040       3.93380289       4.30411044       2.96431203      -1.33760168      -1.03412290       1.46959911
W        1.62037655       4.86113861       1.68107162      -0.11819230       4.06410217       2.28436301       0.09643132       0.36891202      -0.59538615
W       -0.04214860       2.99430074       3.13056196       0.82396325       0.47907168       3.28170142       0.24936553       1.39197266      -0.12060807
W        1.50908739       4.77478110       4.74457513       1.57452792      -0.47955009       1.44798536       1.16295459       0.52750183      -0.28385558
W        3.26740799      -0.07691539      -0.22533200      -5.59148637      -0.53952207       1.50537731      -0.59438255       0.31739154       1.98197518
W        4.77188537       1.57942557       1.65740953      -2.36066397      -4.21428701      -0.09421732      -0.66814605      -0.19176813      -0.89818588
W        3.25998628       0.03457136       3.30446114      -3.71766458       5.09824725      -2.25755594      -0.69993619      -0.25114046      -0.98800648
W        4.82738672       1.54962269       4.90576159      -0.07750196       3.71400669      -4.84641967      -1.03367258       0.95740522      -0.59063430
W        3.27788276       3.29977657      -0.02895138       1.17674376       3.68940823       2.00611893      -0.71311167      -0.48238169       0.57195268
W        4.85747149       4.68342656       1.67384190      -1.21866128      -6.06960172      -0.76186914      -0.73921477       0.90707858      -0.40781100
W        2.98903383       3.15856213       3.15385778       5.81185381       5.03003528      -3.20202644       1.53216778       0.03466161      -0.10004610
W        4.91352439       4.61168239       4.74767666      -0.06213558       1.05412811       0.74873778      -1.31833686       0.73574689      -0.12567298
16
Lattice="6.376 0.0 0.0 0.0 6.376 0.0 0.0 0.0 6.376" Properties=species:S:1:pos:R:3:momenta:R:3:forces:R:3 Temperature=689.2206126945609 Step=272500 energy=-202.68771739762064 free_energy=-202.68771739762064 stress="-0.017973153519027972 0.0010691836719930164 -0.000437366223154782 0.0010691836719930164 -0.014479817719406516 -0.002972033398033236 -0.000437366223154782 -0.002972033398033236 -0.016691432017352542" pbc="T T T"
W       -0.05910970      -0.05451860      -0.04466867      -0.22400271      -2.51613360      -1.89430673       0.47478380       0.33914376       0.53173750
W        1.48275618       1.53482284       1.63273287      -0.52098430      -4.03924383       3.91880467       1.03724973       0.49147049      -0.52995505
W        0.12216736       0.03160096       3.14186670      -0.49516014       1.19348331      -0.76304405      -0.56118293      -1.00804313       0.15954815
W        1.52030688       1.65763468       4.74308138      -4.51529080       3.62366629      -4.14890225       0.32889437      -0.37756829       0.57055640
W       -0.01557765       3.15270371       0.06490596      -0.06737987       1.82283139      -1.71315866      -0.32103350       0.42620728      -0.44471755
W        1.73722718       4.73397536       1.45153145      -3.22385699      -2.76599188      -4.27553108      -0.86501701       0.10849006       0.73234068
W       -0.05583436       3.21949761       3.17129252      -2.33788598       2.25729419      -1.36402799       0.60649854       0.49053719       0.14684636
W        1.59963522       4.74740819       5.04872665       8.01656025       2.97936342       2.18241447       0.23906411       0.17473869      -1.69458272
W        3.29398294       0.14000577      -0.08283805       2.06860775       8.52910549       3.49946291      -0.75264520      -0.84387885       0.59832849
W        4.82485422       1.61539571       1.65016082       0.09747444       2.29336166       1.25744939      -0.49919026      -0.47688968       0.30283791
W        3.12686556      -0.06589254       3.21091355       2.03547687      -6.05644103       2.59373864      -0.03414770       0.62504705      -0.19000444
W        4.81970164       1.56910295       4.77630638       1.46010922      -2.50614042      -0.50883066      -0.04175833       0.57181183      -0.76486035
W        3.29327185       3.02134895       0.05835605      -2.05546623      -0.54072221       0.03522193      -0.45202230       1.08492503      -0.65643133
W        4.66484008       4.75032750       1.59825318       3.44010102      -3.60318917       1.02648945       0.73027893       0.42001513      -0.14516722
W        3.07532133       3.21303347       3.21908528      -7.93999464      -4.32329639      -0.31549107       0.55210915      -0.16213926       0.09747554
W        4.82559128       4.98955352       4.61629392       4.26169210       3.65205276       0.46971103      -0.44188140      -1.86386728       1.28604763
16
Lattice="6.376 0.0 0.0 0.0 6.376 0.0 0.0 0.0 6.376" Properties=species:S:1:pos:R:3:momenta:R:3:forces:R:3 Temperature=516.8102449913404 Step=73500 energy=-202.53460149857412 free_energy=-202.53460149857412 stress="-0.01972612449434304 0.0013652239303977589 9.1102678903911e-05 0.0013652239303977589 -0.019321357864435614 -0.0015754718380683631 9.1102678903911e-05 -0.0015754718380683631 -0.021927266702701842" pbc="T T T"
W        0.15896933       0.04849835       0.00757498       0.04646301      -0.36408425      -3.73900401      -0.76396002      -0.11335284       0.22668346
W        1.64846411       1.71475353       1.77561613      -0.68914628       7.96675704      -3.44966850      -0.39788550      -0.70691103      -1.11486227
W       -0.06211093       0.12250194       3.26385372      -3.40863555       0.88809445      -3.50035405       1.10118889      -1.33690360      -1.30719209
W        1.66969383       1.67605659       4.63376153       2.83229354      -3.07717964      -0.60351127       0.02692475      -0.92826666       1.08948249
W       -0.02941565       3.06753833      -0.02692402       0.42995949       2.03901325       0.44718642       0.40930184       0.68890047      -0.19216876
W        1.49078864       4.73998987       1.58320983       0.48105716      -1.46738593      -0.65938328       0.28979540       0.20641298       0.52479021
W       -0.16631126       3.22388421       3.23310243       1.56334474      -6.95588343       2.12789515       1.23194777       0.13241189      -0.13133237
W        1.55062979       4.86158903       4.87311707       3.30720493      -1.83189206       2.50790902       0.31384439      -0.27190844      -0.72229559
W        3.18093668      -0.13713640       0.20288239       3.82759663       1.12214140       2.49555327      -0.15640119       1.07032896      -1.63204799
W        4.75605863       1.62305895       1.45272017      -2.23914491       1.43034011       2.52737054       0.22242941      -0.28564302       0.61732296
W        3.34235263      -0.05266209       3.04600466       0.99190844       3.69722744       0.70293279      -1.36181709       0.07698385       0.93493165
W        4.85382539       1.50670873       4.62289037      -6.81350769      -1.24399722      -0.19319324      -1.44337950       0.50083107       1.96065817
W        3.09274036       3.11726609      -0.01291931       0.29652498      -2.36339800       2.29450430       0.42261062       0.29725038      -0.13324717
W        4.76455006       4.69449969       1.58855873       2.34561392       2.53117440       1.91622426       0.49416070       0.50597902      -0.72897741
W        3.21913876       3.25547100       3.24459681      -2.77879524       0.12918658      -5.54821648      -0.30360283       0.00035443      -0.35423340
W        4.78568966       4.79398226       4.76795451      -0.19273716      -2.50011415       2.67375507      -0.08515763       0.16353254       0.96248811
16
Lattice="6.376 0.0 0.0 0.0 6.376 0.0 0.0 0.0 6.376" Properties=species:S:1:pos:R:3:momenta:R:3:forces:R:3 Temperature=752.5828434007371 Step=3500 energy=-202.31613027870384 free_energy=-202.31613027870384 stress="-0.024290374388825246 -0.0012086909991164262 -0.0002241014491042512 -0.0012086909991164262 -0.020688103353010422 -0.0021915628370423037 -0.0002241014491042512 -0.0021915628370423037 -0.025091330934212664" pbc="T T T"
W        0.02141384       0.12125861       0.06549917      -4.16296777       2.08551724       0.77350806      -0.51372887      -1.79686779      -0.48130749
W        1.48274139       1.64536463       1.38690492      -3.56224733       5.11212108       2.07753957       1.47833048      -0.56237600       1.78029422