16
Lattice="6.376 0.0 0.0 0.0 6.376 0.0 0.0 0.0 6.376" Properties=species:S:1:pos:R:3:momenta:R:3:forces:R:3 Temperature=575.327154093605 Step=250500 energy=-203.13947202156885 free_energy=-203.13947202156885 stress="-0.008478797145783059 9.070150986312321e-05 -0.0009879295303799132 9.070150986312321e-05 -0.011325859766364682 0.0005249160462519046 -0.0009879295303799132 0.0005249160462519046 -0.01040220280984397" pbc="T T T"
W       -0.00293596       0.11218014      -0.11193885      -0.57466101      -2.32456848       5.26361680      -0.22869207      -0.85993939       0.42353511
W        1.64481798       1.52369458       1.53168273      -4.64340289       5.33043517      -0.22363507      -0.74012448       0.52089328       0.60192831
W       -0.04130352      -0.05605355       3.12592825       4.02963050       1.41038085      -1.94923404       0.54135077       0.57357894       0.87876980
W        1.63013946       1.62530540       4.88789597       1.03793684      -0.34195327      -5.75682821      -0.39571119      -0.02872139      -1.09308623
W       -0.05175666       3.19124454       0.13792583      -8.32864064       3.90624535       0.37136155       0.21782700      -0.00615561      -0.96432445
W        1.58139132       4.83183555       1.48470459       2.11437552      -0.27466364       4.42191894      -0.16485594      -0.14946687       0.41240380
W        0.06244782       3.33517095       3.23066379       1.68560990      -1.71019612       2.72755050      -0.22650297      -1.27641822      -0.22955685
W        1.70480313       4.72702798       4.72453665      -3.79362561      -1.94380520      -1.51113250      -1.08096475       0.24521160       0.66825818
W        3.21809701      -0.00464383      -0.02882022       0.10177610      -2.44836588      -4.67715174       0.03410816       0.18509108      -0.01766106
W        4.78307654       1.56513341       1.68766128       4.07019038       3.41600755      -2.08589876       0.28667369       0.09991348      -0.49175776
W        3.10283303      -0.05599602       3.21494737       1.29092837      -4.19932253       4.08709265       0.48547970       0.45328900      -0.10005891
W        4.76533682       1.55817636       4.72246592       0.96580112      -1.66319176      -0.47545543       0.23076836       0.51565964       0.38166820
W        3.14001325       3.19121634       0.06222111      -0.47837742      -1.54055308      -0.69687202       0.67624658      -0.34188055      -0.26802226
W        4.76608174       4.82451261       1.69472454      -0.99114701       2.10840318       3.15002508       0.25470247      -0.05839791      -0.87655300
W        3.23289631       3.19765058       3.05927649      -1.58543901       1.54351179      -1.71234653      -0.53829776      -0.30404427       0.95214087
W        4.72006172       4.68954496       4.83212454       5.09904486      -1.26836393      -0.93301122       0.64799241       0.43138718      -0.27768375
16
Lattice="6.376 0.0 0.0 0.0 6.376 0.0 0.0 0.0 6.376" Properties=species:S:1:pos:R:3:momenta:R:3:forces:R:3 Temperature=441.208268054884 Step=255500 energy=-203.19144042326224 free_energy=-203.19144042326224 stress="-0.011543671741395835 -0.0005294328761122052 -0.00017413346639988348 -0.0005294328761122052 -0.011390448582572491 -0.0005680004501380573 -0.00017413346639988348 -0.0005680004501380573 -0.009489141845702537" pbc="T T T"
W       -0.01174816       0.03445936       0.04573775       2.53402915      -0.84498352      -0.45355802       0.08874555      -0.38001376      -0.20342265
W        1.59582992       1.61274288       1.50072033      -0.02316212       0.44658516       3.98201001      -0.21779570      -0.25263496       0.90115340
W        0.09562494      -0.12103378       3.31996396      -2.08391305       1.01155282      -5.42180404      -0.53545640       1.05227811      -0.98809247
W        1.50558286       1.61315657       4.86568111      -4.85724648       1.14539355       0.82307702       0.82931943      -0.14492280      -0.84155238
W       -0.01577927       3.13589876      -0.07418340      -0.73284557       0.93978278      -1.86470851      -0.14009822       0.41911068       0.45179812
W        1.54807998       4.75411136       1.67423598      -0.60258329      -4.09297779       2.50590052       0.64349966       0.42006314      -0.99618242
W       -0.08841855       3.32610059       3.07435640       1.06854213      -3.66855991       2.35851715       0.93687394      -1.40553579       1.00820617
W        1.69886430       4.73417512       4.84242746      -3.13597239       5.03388094      -4.98248162      -0.80205755       0.46810576       0.02938529
W        3.21948328       0.00473510       0.01047807       1.16749918      -2.87473589      -2.01585014      -0.09180604       0.30784449      -0.00348242
W        4.75395721       1.58749701       1.62292826       3.47074232      -2.46555036      -0.15535691       0.31883536      -0.24947718      -0.19711903
W        3.19025328       0.01393231       3.17719546      -3.92955911       1.58296605       4.68791800      -0.13010859       0.12689122       0.18907649
W        4.85624359       1.60366612       4.65481264      -0.90149925       0.83137909       0.67056272      -0.69863140      -0.23450934       0.71776080
W        3.21681077       3.21754317      -0.00863909       6.03020763       3.73158062       0.33446585      -0.05090378      -0.64032635       0.09901054
W        4.81061328       4.73118607       1.59112046       0.14201491      -2.19857660      -1.21580934      -0.55675085       0.82658196      -0.14709416
W        3.14275244       3.24410540       3.20272919      -0.77293178       0.47841301       1.78117812       0.06849019      -0.69442403      -0.27518918
W        4.73785013       4.76372393       4.75643544       2.62667771       0.94385005      -1.03406083       0.33784441       0.38096885       0.25574390
16
Lattice="6.376 0.0 0.0 0.0 6.376 0.0 0.0 0.0 6.376" Properties=species:S:1:pos:R:3:momenta:R:3:forces:R:3 Temperature=439.51851709711457 Step=270500 energy=-203.1096528051357 free_energy=-203.1096528051357 stress="-0.011994944145908073 -0.00048465977194112205 0.0013106882353868456 -0.00048465977194112205 -0.011051919978892794 -0.0005049410573357407 0.0013106882353868456 -0.0005049410573357407 -0.009348915999513248" pbc="T T T"
W        0.01166258      -0.01884217       0.02922464      -0.76052222      -1.67276932      -0.82731217       0.14541007      -0.12051590      -0.16870986
W        1.62144889       1.57157757       1.70311405       4.45829779       0.90757731      -0.51968232      -0.28553820       0.46644754      -1.25385771
W        0.03130668      -0.01936004       3.06119613       0.44413694       0.53231062       2.66410614      -0.12624436      -0.12853311       0.87453270
W        1.46276173       1.55090311       4.67723151      -1.14265762       2.34344210      -4.83819684       0.63793218       0.42261325       1.04783168
W       -0.11102238       3.16380140      -0.08479266      -1.02344216       3.54063829       4.38566532       1.09372958       0.53923269       0.65085815
W        1.78705128       4.72780431       1.56951033       1.74683555      -3.28690820      -2.18271233      -1.17418273      -0.01577643      -0.01228033
W       -0.00498745       3.21445047       3.05456062       1.89130997       0.07827394      -2.20724758      -0.07800719       0.05461754       1.07014915
W        1.57369538       4.77201327       4.79446157       2.00635932      -2.11230752      -0.13050485      -0.02232409      -0.12525636      -0.21068264
W        3.15557645       0.02564935      -0.01001104       0.34962515      -4.73388124       2.62869418       0.03145843      -0.03348392       0.02330286
W        4.74076458       1.61904662       1.65407027      -1.08558661       7.49094225      -1.25623875       0.43163026      -0.14424459      -0.28299665
W        3.16874996       0.03820224       3.17398662      -1.78970681      -1.02371889      -2.98708455       0.12935853      -0.31270131       0.48014192
W        4.84659766       1.58103952       4.94181470      -2.60468945       0.05542869       4.68624195      -0.48459642      -0.01878102      -1.43665427
W        3.24991341       3.17962008       0.05366261      -5.26766775       0.28077435      -3.87279288      -0.65164221      -0.06126313      -0.71515151
W        4.83769933       4.81219974       1.62814413       1.58594468      -1.66450517      -1.66055862      -0.57153511      -0.21364533      -0.46299185
W        3.18769023       3.12413582       3.26731270       0.29127950      -0.00442842       3.99726646       0.19657575       0.54724851       0.03216049
W        4.69709166       4.91375871       4.74251382       0.90048370      -0.73086878       2.12035682       0.72797552      -0.85595844       0.36434786
16
Lattice="6.376 0.0 0.0 0.0 6.376 0.0 0.0 0.0 6.376" Properties=species:S:1:pos:R:3:momenta:R:3:forces:R:3 Temperature=358.093417477922 Step=5000 energy=-202.96222787594954 free_energy=-202.96222787594954 stress="-0.011382348072949635 -0.00042619914319276796 0.00028358971040615664 -0.00042619914319276796 -0.010725403228765931 0.0005675196228462872 0.00028358971040615664 0.0005675196228462872 -0.01544030421695878" pbc="T T T"
W       -0.01356439      -0.02858906      -0.05458221      -0.26127520       1.11293289      -2.44370768      -0.09481236       0.26129133       0.87758041
W        1.56858240       1.63626028       1.63890728      -3.47149735      -3.76782354       3.76034769       0.14925205      -0.47490181      -0.18046709
W       -0.04569706      -0.12503584       3.21046627       1.58828591      -1.04909064       5.42065838       0.23007711       1.03536096      -0.63531330
W        1.56767574       1.72886561       4.75773604      -1.30520350      -0.26583143      -1.68129974       0.15539701      -1.07855214       0.05589358
W        0.00058944       3.15068954       0.07187521       3.52072891       2.28880612      -0.53676170      -0.00865096       0.21150537      -0.47086228
W        1.61335983       4.74875251       1.50407493      -0.07356660       0.72684075       2.96838752      -0.08381492       0.32635598       0.97956744
W        0.08614334       3.19801172       3.13756364      -0.94145604      -0.07353911       0.00219452      -0.46990115      -0.04603356       0.25352000
W        1.58690203       4.88273970       4.90382392      -4.86063327       1.44791365      -4.61583472       0.28922475      -0.57554529      -1.11335442
W        3.15956082       0.00274987       0.09202057       2.45390013      -1.37932310       0.79457574       0.11557809       0.21369735      -1.10440532
W        4.68444833       1.59555480       1.46258615       4.85773528       0.04589129      -3.02474892       0.69578083      -0.39788589       1.41642089
W        3.08297029       0.03673876       3.17585957      -0.43134506      -1.37924056       0.11133678       0.79808112      -0.14052334       0.46656861
W        4.88111947       1.60647183       4.80559605       0.08373378      -0.00137042      -0.73072723      -0.55091670      -0.48815246      -0.63850443
W        3.18239596       3.13782662      -0.08897479      -0.17721160      -0.62545619       1.21296137       0.12026523       0.29687825       0.49927771
W        4.64029723       4.71071476       1.63016135       3.27534658      -1.21859312      -3.07910886       0.97484780       0.65349189      -0.48143575
W        3.35649919       3.24813158       3.24947653      -3.29937826      -0.20335669      -1.52031896      -1.39018298      -0.51231224      -0.29717445
W        4.90471737       4.72611732       4.75940947      -0.95816369       4.34124010       3.36204580      -0.93022491       0.71532562       0.37268839
16
Lattice="6.376 0.0 0.0 0.0 6.376 0.0 0.0 0.0 6.376" Properties=species:S:1:pos:R:3:momenta:R:3:forces:R:3 Temperature=389.3724341937112 Step=20000 energy=-202.89274450627767 free_energy=-202.89274450627767 stress="-0.011446995358767958 0.00040827462054127757 0.0001496954578928695 0.00040827462054127757 -0.012726668869983825 7.837766290231987e-05 0.0001496954578928695 7.837766290231987e-05 -0.015841745570686336" pbc="T T T"
W        0.08214962       0.14811562       0.07176336       1.50626169       0.26073636       0.96455561      -0.18899387      -1.10089474      -0.56563713
W        1.66020167       1.51901511       1.62920924      -2.11669879       5.37379343       1.86574430      -0.55229274       0.78617979       0.01950804
W       -0.10058975       0.00721446       3.22764735       0.67851350      -1.27838064      -3.30467959       0.61763837      -0.36293185      -0.15846874
W        1.53331038       1.58043134       4.62276585       2.29409472      -1.68213417       1.99612630       0.60895090       0.37595568       0.99954503
W       -0.04124435       3.22127454      -0.03548469      -0.64818272       1.85611105      -0.77038511       0.59474719      -0.15272297       0.45223726
W        1.65251368       4.77567230       1.67215615       0.51800934       1.51602694       0.44673837      -0.38033053      -0.11785354      -0.85463920
W        0.01742843       3.25136518       3.23411778       1.12671838      -2.71234288      -4.07875525      -0.38404868      -0.27965267      -0.49006909
W        1.47273790       4.81217894       4.69987909       1.65317458       3.57178220      -4.59279693       1.09730672      -0.33779756       0.68931073
W        3.26184165       0.04008855      -0.02127388      -0.86380446      -2.46921449       0.65355892      -1.04849218      -0.43650678       0.02456816
W        4.78598808       1.53737428       1.72021626       1.85338165      -1.01540824      -2.73709043       0.27926724       0.60909536      -1.14877302
W        3.17127460      -0.03057915       3.17546917      -1.04825815       0.83414100      -1.58720212       0.39961379      -0.32885381       0.25037987
W        4.81558032       1.53822263       4.90851955      -5.42943334       2.16942502       5.21557685      -0.52649844       0.85500440      -0.72665799
W        3.05603429       3.11872031       0.04883737      -0.93123629      -0.50405860       3.08935750       0.70209900       0.50167275      -0.75061384
W        4.84156978       4.79294380       1.42428412       2.25876552       2.44011332       1.86130121      -0.40475222      -0.23241113       0.95566141
W        3.30939756       3.11255857       3.04006342       0.09860067      -5.52931495      -1.93188928      -0.79620729       0.88698894       1.39915187
W        4.73780615       4.83140348       4.83782984      -0.94990628      -2.83127534       2.90983963      -0.01800723      -0.66527187      -0.09550337
16
Lattice="6.376 0.0 0.0 0.0 6.376 0.0 0.0 0.0 6.376" Properties=species:S:1:pos:R:3:momenta:R:3:forces:R:3 Temperature=413.23258277033744 Step=60000 energy=-203.05108569206556 free_energy=-203.05108569206556 stress="-0.010704468252261628 0.001190874646630386 0.001008313438885197 0.001190874646630386 -0.008315625101553937 0.00012807212062277337 0.001008313438885197 0.00012807212062277337 -0.014518756494474318" pbc="T T T"
W       -0.00669499      -0.11195934       0.09973165       5.20406884      -1.24522214       3.67339623       0.10334816       0.57508414      -0.38943388
W        1.57206800       1.66637247       1.44264904       1.80682204      -3.37236880      -4.25145197       0.53153290      -0.35261096       0.92041754
W       -0.00372217       0.07358634       3.03073195      -0.19773124      -3.35532829       1.38683715       0.29277011      -0.52509365       0.94504008
W        1.53890417       1.59948595       4.87697952       2.32957019       2.09803408       0.69531359       0.22498310      -0.14084799      -0.69475020
W       -0.10096961       3.18754406       0.11585880      -3.45693256      -0.22758243       1.29106278       0.61853203       0.08874596      -0.83122335
W        1.62789683       4.74155070       1.68863356      -1.14918860      -2.62592487      -1.15187848      -0.09105593       0.02140272      -0.67235387
W        0.03014272       3.11527875       3.12235992      -5.04859707       2.99344054       1.65962778      -0.12231392       0.51245020       0.72374909
W        1.64054208       4.72365334       4.81987823       0.39546730       5.89820322      -1.12814320      -0.60702569       0.60159510      -0.33785315
W        3.19960996      -0.04228964      -0.07333783       4.89728467      -0.75003763       0.08157356      -0.21927716       0.25751788       0.15396288
W        4.74063903       1.56137041       1.61498689      -2.45519982      -2.08748375       1.28082103      -0.29042141       0.08713131      -0.24838600
W        3.09378526       0.04599921       3.11184900      -3.58152888      -0.05704607      -2.59850802       0.40790002       0.18391456       0.88923556
W        4.87925948       1.59337499       4.80649901       3.29123432       1.91788207      -1.88015667      -0.37526960      -0.27161035      -0.25823818
W        3.24528029       3.21529089      -0.10493415      -1.30529531       0.00730810      -3.92267302      -0.23029282      -0.18334071       0.31142135
W        4.60086359       4.69580429       1.63559378      -2.47788151      -0.54287147       4.19319101       1.10502075       0.86315760       0.08483065
W        3.26625643       3.27431815       3.27814482       1.28329117       1.20631129       0.75173815      -0.65567068      -1.04214922      -0.06652040
W        4.93213894       4.91661941       4.79037579       0.46461646       0.14268616      -0.08074993      -0.69275986      -0.67534658      -0.52989811
16
Lattice="6.376 0.0 0.0 0.0 6.376 0.0 0.0 0.0 6.376" Properties=species:S:1:pos:R:3:momenta:R:3:forces:R:3 Temperature=554.308380794623 Step=135000 energy=-202.97287471020525 free_energy=-202.97287471020525 stress="-0.014721294858904287 -0.0001774447211333523 0.00055289689437283 -0.0001774447211333523 -0.013749117159301397 0.0004942489076613894 0.00055289689437283 0.0004942489076613894 -0.012242079578497465" pbc="T T T"
W       -0.06317780      -0.04350905       0.04324083      -1.30887609      -4.46434431       0.26070424       0.42771629       0.48344939      -0.36682239
W        1.57841289       1.74963342       1.68923913      -3.90933709      -3.57330247      -1.58560740       0.06187639      -1.49499460      -0.92993029
W        0.04118137      -0.01235157       3.17809166       1.68589275      -2.46534740      -1.34417255      -0.04334752       0.11220997       0.24270043
W        1.67321613       1.66606683       4.84678653       2.58084737       3.42986814       2.93195712      -0.74352387      -0.74366205      -0.29022925
W       -0.09774358       3.12781159       0.10839436       0.93068560       0.60878927       3.74467044       0.55088624       0.16623365      -1.06109611
W        1.54904920       4.69631390       1.50528899       1.65962965       1.85490268       7.95687921       0.45273290       0.93093329       0.77293799
W        0.04025976       3.08959249       3.28135259      -0.25465845       0.38403252       3.42607053      -0.36653665       0.80669217      -0.25354981
W        1.62148716       4.80198423       4.85220891      -1.98228851      -1.92120236      -1.27140893      -0.15811947      -0.04986396      -0.64201654
W        3.09319317      -0.00129399      -0.10655572       2.12032830       2.38758310      -2.83512469       0.89207720      -0.28094132       0.94594899
W        4.71937795       1.63183533       1.55940286      -1.34311205      -0.85228263       1.36210682       0.18039193      -0.74390999       0.50464081
W        3.14626576       0.11812093       3.12594841       2.19039802       6.13093849      -0.02181596       0.32255831      -1.26534520       0.12365605
W        4.74594525       1.56302324       4.74326600      -1.19180342      -3.40611131      -2.37682107       0.09578465      -0.22819141       0.04521338
W        3.17140744       3.13423588      -0.03905275       1.25147911       1.19822456      -2.46827961       0.51369197       0.92473792       0.16573629
W        4.96206084       4.76518189       1.61562201       1.23897759      -3.52726153      -1.72638195      -1.66831349       0.41255529      -0.07727025
W        3.16803704       3.23296809       3.11662579      -4.02772659      -2.78571037      -6.51582427       0.48270351       0.35201726       0.66409145
W        4.90702743       4.73638679       4.73614039       0.35956380       7.00122364       0.46304804      -1.00057838       0.61807957       0.15598924
16
Lattice="6.376 0.0 0.0 0.0 6.376 0.0 0.0 0.0 6.376" Properties=species:S:1:pos:R:3:momenta:R:3:forces:R:3 Temperature=568.2870399346642 Step=230000 energy=-202.8911484830765 free_energy=-202.8911484830765 stress="-0.013140511217315371 5.8376987171288214e-05 -2.2797944820623566e-05 5.8376987171288214e-05 -0.017904029377641534 -0.00022351477954744126 -2.2797944820623566e-05 -0.00022351477954744126 -0.016662134523128373" pbc="T T T"
W       -0.00744720      -0.10690437       0.08171733      -5.95229894      -2.15478392      -0.97354341      -0.11235152       0.49308369      -0.84363773
W        1.44474757       1.50676707       1.53765464      -1.93650641      -3.73162122       1.59213682       0.96637806       0.73280533       0.11410845
W        0.08886109       0.06571113       3.22061476       0.32607419      -3.81130130      -2.82219542      -1.61250444      -0.71720730      -0.23888645
W        1.57522553       1.57024953       4.63490329      -2.21678595       0.42294253       2.05551104       0.03253545      -0.10098993       1.56876730
W        0.05454549       3.19117538      -0.03903011       2.64379801      -7.21158491      -1.73787828      -0.09154657       0.51418040      -0.23041478
W        1.67516040       4.81139385       1.71380450       1.78576025      -4.39810411      -3.58069189      -0.55391653      -0.50404790      -0.56818028
W       -0.01351694       3.10902753       3.16968137       1.78046473       3.38813366       2.66681669       0.01055059       0.81791446       0.46805395
W        1.70405069       4.84553606       4.68206481      -1.37723894      -0.03078213      -0.05577156      -0.63416707      -0.40019297       0.59403616
W        3.12810221       0.01965252       0.05863912      -0.88643415       9.10436754       1.79667570       0.54596316      -0.31256000      -0.30833557
W        4.74665940       1.83803971       1.48069976      -2.03926380       0.09997335       3.14958761       0.36729250      -2.03989043       0.56928517
W        3.20024319       0.01863695       3.16379016       4.85142960      -0.01800967       0.06368708       0.83830387       0.09726469      -0.06918009
W        4.72896820       1.62706528       4.90628511      -1.23126993       5.11461618       1.44935762       0.41505330      -0.33703715      -0.54980874
W        3.11844949       3.21087771       0.06405914      -1.34082179      -0.18850333       0.90530069      -0.00338814       0.18044317      -0.76629032
W        4.85067132       4.68802583       1.57156905      -1.00901276       0.02748950      -4.62139939      -0.41500205       0.76918733       0.40927447
W        3.20359467       3.04163790       3.22812882       1.64005362       0.07652043       0.46649291       0.01010495       1.05742689      -0.23328376
W        4.75768488       4.81910794       4.78141822       4.96205226       3.31064739      -0.35408621       0.23669444      -0.25038028       0.08449221
16
Lattice="6.376 0.0 0.0 0.0 6.376 0.0 0.0 0.0 6.376" Properties=species:S:1:pos:R:3:momenta:R:3:forces:R:3 Temperature=482.56141186901374 Step=10000 energy=-203.3294388951705 free_energy=-203.3294388951705 stress="-0.010978472796128708 -0.0004927680535849781 -9.760114162003267e-05 -0.0004927680535849781 -0.008681610014204134 -0.0002582496054887593 -9.760114162003267e-05 -0.0002582496054887593 -0.008864211765454643" pbc="T T T"
W        0.04243206       0.12641249      -0.01966889      -2.93490326       1.87052477      -0.47158092      -0.23155918      -1.44945763       0.30114569
W        1.71425902       1.55049556       1.59069200       1.10350921      -1.43522427       0.15221855      -1.10904239       0.58460034       0.04947382
W        0.04006296      -0.06770368       3.17587855      -2.71552765      -0.47909248      -3.00669613      -0.09181042       0.33215755      -0.09241729
W        1.54120680       1.60458856       4.83695099       8.42126643       2.70680067       1.86516105       0.44458866       0.15349935      -0.41190123
W       -0.14825481       3.14366863       0.02503671       0.29922617       3.90253730       1.63119278       1.19482672       0.59196335      -0.03371836
W        1.61806841       4.72080129       1.58981316       1.74179428      -3.70201723      -0.20279600      -0.26195663       0.27202669      -0.17869781
W       -0.03644560       3.12244344       3.25398219      -0.65771032       2.79155704       1.05391032       0.09685267       0.39426580      -0.55637023
W        1.63806717       4.74017400       4.73612215      -0.57450162      -1.50040776      -1.89982180      -0.62105246       0.33168824       0.54889204
W        3.15119666       0.05524006      -0.04761508      -7.47525137      -6.46760548       2.05900077       0.45044772      -0.64241602       0.31326602
W        4.78946968       1.56020025       1.56624296       4.22971223       0.68612096      -0.60624409      -0.01742441       0.04980995       0.54249816
W        3.14336584       0.10604316       3.16289635      -2.47690576       2.16162619      -1.98821489       0.34442223      -1.04352581       0.13270216
W        4.81343704       1.55830381       4.80837085       1.80399294       0.04658011       0.21831045      -0.48080399       0.28177151      -0.48747922
W        3.25330714       3.22161528       0.02545613      -1.07240802       1.64844819       1.60468372      -0.44051276       0.01848636      -0.29185793
W        4.81030631       4.71607849       1.58665082       1.42466193      -3.36414938      -3.88276691      -0.21774945       0.77752499       0.15201888
W        3.08773071       3.24717764       3.20792848      -2.89783156      -0.18754993       3.93542380       0.98731037      -0.32721009      -0.01893133
W        4.79779061       4.85046099       4.75726258       1.78087637       1.32185130      -0.46178070      -0.04653669      -0.32518457       0.03137663
16
Lattice="6.376 0.0 0.0 0.0 6.376 0.0 0.0 0.0 6.376" Properties=species:S:1:pos:R:3:momenta:R:3:forces:R:3 Temperature=462.7234663200404 Step=30000 energy=-202.86486230903466 free_energy=-202.86486230903466 stress="-0.014497802952900058 -0.00027307714693396027 0.0009261888549907038 -0.00027307714693396027 -0.010830662636836715 0.0011345358850495812 0.0009261888549907038 0.0011345358850495812 -0.015053432605183256" pbc="T T T"
W        0.15780464      -0.05134790       0.07611146       5.75987272      -4.04438096      -3.47766633      -0.99202509       0.39392195      -0.63951869
W        1.56595709       1.66824628       1.63172461      -0.00449149       1.15180124       2.42110893       0.23332340      -0.13044318      -0.13834901
W        0.00965427       0.01816315       3.21771294      -0.89535638       3.68883289      -1.28804065      -0.38995495       0.03262190      -0.14392309
W        1.49453837       1.49134046       4.74055882      -1.79830567       1.98698307      -2.33331894       0.74882846       0.67934985       0.13284296
W        0.07799896       3.10710818      -0.14615421       1.65299418      -0.43377186       4.36413003      -0.71227531       0.78429605       1.00723726
W        1.64252780       4.88397885       1.71726984      -4.05705855       0.08639507      -0.12365966      -0.38024619      -1.24970050      -0.45004597
W       -0.10571354       3.16366314       3.17673550       2.70851426      -2.93944191       4.92397460       0.49761343       0.12827997       0.09140071
W        1.58966830       4.77444035       4.81666450      -1.33202500      -1.56238157       2.50865394       0.14801501      -0.22259641      -0.52466696
W        3.27392188      -0.03224325       0.07128842       6.44068001       4.10287818      -6.08365767      -0.92926237       0.26424522      -0.39374079
W        4.78725114       1.65057601       1.44086983      -0.22384088      -1.66731376       1.51199188       0.09982108       0.13158457       0.66991527
W        3.24541081      -0.03091890       3.12357653       0.73733241      -0.83934188       0.26656225      -0.22195913       0.33843537       0.50364070
W        4.58047234       1.53196483       4.74489228      -3.49737132      -0.16080516      -1.83767775       1.50323583       0.29572021       0.58970517
W        3.02419162       3.23950959      -0.00336450      -0.70601756      -0.32835847       1.73842963       1.08181266      -0.26564920       0.09010095
W        4.83841376       4.94182796       1.60719204      -1.20543786      -1.43396398      -1.05673553       0.08796859      -1.72355862      -0.38131633
W        3.30910232       3.10861188       3.22835851       0.33989056       3.25326013       1.63566412      -0.99299678       0.80670121      -0.49360224
W        4.76480023       4.79107933       4.81256336      -3.91937941      -0.86039102      -3.16975885       0.21810136      -0.26320840       0.08032006
16
Lattice="6.376 0.0 0.0 0.0 6.376 0.0 0.0 0.0 6.376" Properties=species:S:1:pos:R:3:momenta:R:3:forces:R:3 Temperature=609.8109793125581 Step=85000 energy=-202.67241342242824 free_energy=-202.67241342242824 stress="-0.01593654563978893 -0.0006110476998939559 -0.0012943861778274793 -0.0006110476998939559 -0.013108620773343136 -0.0002765661146573244 -0.0012943861778274793 -0.0002765661146573244 -0.01667288487806396" pbc="T T T"
W       -0.01478798      -0.03894766       0.01381531      -1.34551181       1.24349912      -3.88171560       0.22594518       0.05275350      -0.19878283