16
Lattice="6.376 0.0 0.0 0.0 6.376 0.0 0.0 0.0 6.376" Properties=species:S:1:pos:R:3:momenta:R:3:forces:R:3 Temperature=468.5538222694113 Step=0 energy=-203.30183362197425 free_energy=-203.30183362197425 stress="-0.009862586945764116 0.00060712156359057 5.556318827602369e-05 0.00060712156359057 -0.006075118486609937 -3.3639977662842347e-05 5.556318827602369e-05 -3.3639977662842347e-05 -0.008864346841136104" pbc="T T T"
W        0.01007519      -0.00346126       0.00252915      -4.05321289      -3.52741791      -0.48834878      -0.03932790      -0.05934764       0.34517992
W        1.65802294       1.63910878       1.54994860      -4.41693645       2.23583574      -3.46812744      -0.36979074      -0.26581531       0.58449973
W        0.12305916      -0.01959727       3.18248889       1.57285506       1.96565259       3.77493713      -0.80873718       0.06529440      -0.42812517
W        1.51396651       1.53592678       4.80168008       1.09590723      -0.45493933      -1.03399754       0.18345930       0.13243185      -0.36280377
W       -0.02077059       3.16010558       0.08795605       3.94807434      -0.17003668      -1.76208561      -0.12074549       0.34844564      -0.65189533
W        1.75218477       4.78824064       1.47947247      -0.35239844       2.06026019       4.30931697      -1.06626866      -0.13732496       0.88804896
W       -0.08875848       3.21203676       3.09616425       2.06352607       1.04916930       2.10656331       0.71357545      -0.08414248       0.59540935
W        1.51472408       4.62449825       4.72327539       0.11046624       0.07775867      -1.82811920       0.34138989       1.18641255       0.33944112
W        3.16189241       0.05026571       0.02692733      -1.04971775      -2.01774406      -4.84631127       0.25252992      -0.32351195      -0.55793861
W        4.77038299       1.73625004       1.62266648      -0.63143732       2.41154924       0.58818545       0.00265639      -1.26132279       0.04178897
W        3.23311541      -0.03178780       3.21284213       1.37580469      -0.45290549       3.10649236      -0.29199032       0.30556750       0.11889234
W        4.79956451       1.55542265       4.80866419       2.84189921       0.59226960       1.47425076       0.16405018       0.17359772      -0.21368392
W        3.14956411       3.17675418      -0.05668856      -0.89381573       1.71618806       4.09961422       0.44463549       0.05700916       0.11878218
W        4.69706716       4.80953953       1.61195880      -2.36627769      -2.62164877      -7.97737524       0.58841780       0.24201642      -0.08622577
W        3.17866867       3.17806070       3.30793268      -0.67845766      -0.34178069      -3.90876806       0.04705112       0.01079519      -0.67860170
W        4.80324116       4.84463672       4.79818206       1.43372110      -2.52221047       5.85377293      -0.04090524      -0.39010529      -0.05276831
16
Lattice="6.376 0.0 0.0 0.0 6.376 0.0 0.0 0.0 6.376" Properties=species:S:1:pos:R:3:momenta:R:3:forces:R:3 Temperature=366.98189725152446 Step=120000 energy=-202.827078764435 free_energy=-202.827078764435 stress="-0.014403101714020379 -3.860567054137898e-05 -0.0003755200168139524 -3.860567054137898e-05 -0.01710503730261528 -0.0004317790147922674 -0.0003755200168139524 -0.0004317790147922674 -0.011041753650364031" pbc="T T T"
W        0.00985230       0.09251811      -0.12673989      -1.47105496      -1.02335765       2.26039047      -0.10869634       0.04763685       1.12639396
W        1.73338014       1.54206569       1.65922784      -1.91574354       5.22545598       0.28661528      -0.79391438       0.62056970      -0.51412378
W        0.00960433       0.04833346       3.08960193       1.50189520      -0.32538892      -1.89972009      -0.05531221       0.11693607       0.67784719
W        1.74190586       1.57890123       4.80371086       1.77834349      -0.26542673      -0.15854686      -0.87073256       0.19173814      -0.32577183
W        0.07235706       3.19877087      -0.06275730      -2.00340605       0.16950843       1.57718413      -0.58610766      -0.45257333       0.39348459
W        1.55516794       4.88181954       1.57024534       1.66794667       2.75990725       0.36519690      -0.36089194      -1.05814870       0.10065745
W       -0.00969669       3.19637514       3.07541663      -1.70757469       1.23364663       0.62258700       0.05169377      -0.24093073       0.78245316
W        1.41976520       4.81377777       4.77488709      -0.24146681      -0.91474688      -1.88164516       0.79468353      -0.51605402      -0.02775848
W        3.17408986      -0.16671154       0.09390866      -2.25281891       0.38276417       3.11083904       0.02681101       1.55336031      -0.73962675
W        4.69013130       1.63152933       1.68200659      -5.10337416      -5.06253807       4.01027705       0.80269947      -0.09014936      -0.85776002
W        3.27556156      -0.17128728       3.26255022       2.00816373       2.36941864      -2.61814217      -0.94863679       1.18937975      -0.21726441
W        4.80616536       1.48914727       4.74067320       2.44566900      -1.33056817       0.51457328      -0.16900368       1.23654623       0.43029175
W        3.19634152       3.21876475       0.00771009      -1.86418848      -1.36377083      -2.94349892      -0.15949720      -0.45629997      -0.08382371
W        4.74360933       4.84053991       1.63824283       6.58176500       1.34249375       0.88165805       0.90497504      -0.80928831      -0.51212246
W        3.14953255       3.21325296       3.15289528       3.57160779      -0.71427929      -1.80638635       0.19728392      -0.09842294       0.60756737
W        4.68823239       4.84820278       4.89442062      -2.99576327      -2.48311830      -2.32138167       1.27464603      -1.23429969      -0.84044401
16
Lattice="6.376 0.0 0.0 0.0 6.376 0.0 0.0 0.0 6.376" Properties=species:S:1:pos:R:3:momenta:R:3:forces:R:3 Temperature=455.4046211459816 Step=200000 energy=-203.0578313531112 free_energy=-203.0578313531112 stress="-0.012385914901872817 -0.0004906802050366366 -0.0003844831982819918 -0.0004906802050366366 -0.012808037229065362 -0.00022856045780730126 -0.0003844831982819918 -0.00022856045780730126 -0.012715919101600023" pbc="T T T"
W       -0.03600737      -0.15308940       0.01488692       5.29579141       0.00276749       0.84903642       0.24354978       1.13093774       0.00143978
W        1.59744280       1.57583339       1.58644926       0.43683073       1.27617771       3.09925656       0.20155098       0.33865332      -0.48061121
W        0.09151635       0.15174777       3.05683203       1.56618899       0.97866580       0.43870957      -0.47999577      -1.03904919       0.80520037
W        1.53695668       1.62644983       4.88470348      -1.02284540      -1.21395675      -2.36323992       0.69058063      -0.63314382      -0.19344794
W       -0.08784266       3.12733441      -0.03149650       0.69555919       4.61284370       1.87218453       0.20419108       0.20815222       0.34833190
W        1.61445885       4.60950720       1.61255404      -3.21357017       3.25219522      -0.47386715      -0.17144231       1.08946406      -0.27976948
W        0.05288808       3.10139203       3.25541901       1.22302721      -3.35244770       1.42113236      -0.52722978       0.39884385      -0.50067833
W        1.57563979       4.73462659       4.74629025       5.88420431       0.21494052      -5.20314136       0.13342085       0.67717503       0.22983867
W        3.18626449      -0.07200194       0.03717725      -1.70804953      -3.73546285      -3.93921209       0.09175199       0.28348372      -0.45219608
W        4.67748290       1.66303602       1.71748299       1.38276030       0.94854625       0.45859248       0.38967503      -0.38529769      -1.15005086
W        3.11998110       0.08078321       3.10127931       0.02379746       5.32582823       0.00679940       0.44522657      -0.52963928       0.84688413
W        4.81015347       1.56816443       4.80918276      -4.38587435      -1.84073481       2.10967012      -0.59753420      -0.09648453       0.08172393
W        3.17443475       3.31551800      -0.02154666      -2.34521470      -3.70733158       2.13109678       0.49660850      -0.74845581      -0.07622476
W        4.83669403       4.84517228       1.56641280      -3.53384744      -4.40252178      -2.34307122      -0.44739818      -0.50966393       0.53648665
W        3.16148713       3.24626118       3.27073138       1.71004855       1.69991154       2.94080817       0.43599818      -0.31289131      -0.19392577
W        4.94444960       4.83526497       4.64964165      -2.00880656      -0.05942100      -1.00475466      -1.10895334       0.12791562       0.47699901
16
Lattice="6.376 0.0 0.0 0.0 6.376 0.0 0.0 0.0 6.376" Properties=species:S:1:pos:R:3:momenta:R:3:forces:R:3 Temperature=397.02830770262847 Step=210000 energy=-202.8070124929866 free_energy=-202.8070124929866 stress="-0.012306073686796265 -0.00018266201328007148 -5.5979197107848164e-05 -0.00018266201328007148 -0.014784392241006054 0.0007765696909307313 -5.5979197107848164e-05 0.0007765696909307313 -0.01591912225820972" pbc="T T T"
W       -0.00692112      -0.02630711      -0.03999571       4.62504002      -4.95654944      -1.62417165       0.04892765      -0.20831201       0.57469048
W        1.63281152       1.46273521       1.61782031      -3.99624963      -1.65238408       2.39890465      -0.25494536       1.01593579      -0.78859280
W        0.05359987       0.07198046       3.14629783      -0.63022069       0.23656020       0.00254540      -0.33859134      -0.55001298       0.06114194
W        1.58129170       1.53123785       4.84203438       1.14174169      -2.62917259       2.44904211      -0.10789558       0.64829155       0.06219210
W       -0.11214361       3.22943084      -0.01170898      -1.71123518       2.00836978       3.41322123       0.86167269      -0.11320310       0.45094356
W        1.65152631       4.63486218       1.59074270       1.08155710       1.34645409      -0.02223725      -0.56938750       0.75201641       0.30319809
W        0.03917524       2.95251554       3.20745491      -5.18619199      -1.65238548      -0.44221334      -0.46705735       1.72027693      -0.41747773
W        1.63323555       4.73079856       4.65938311       2.51070090       1.09209800      -3.13365627      -0.62606171       0.22994572       0.42376218
W        3.10064710      -0.14774217      -0.05958403      -2.23456081       0.17968495      -3.08546620       0.65888906       0.78650963       0.53518137
W        4.75018260       1.55015267       1.58362652       3.56318253       3.27506351      -1.54833720       0.01754413       0.51482780      -0.35834405
W        3.20485338       0.23880653       3.22564944       2.37472514       1.22385433      -2.00950185       0.10554767      -1.93515839      -0.26453248
W        4.75193296       1.74659740       4.85500744      -2.04900189       1.02210386       3.27691133       0.27007499      -1.01926730       0.02732197
W        3.12958333       3.27563452      -0.05919870      -0.65718328      -2.84167993      -0.29266973       0.34917198      -0.29692125       0.70216174
W        4.76571701       4.85066256       1.63043663       2.14463937      -1.77853050      -4.53471441       0.23559157      -0.56612500       0.08349051
W        3.21565342       3.19327413       3.27340762       0.87629968       3.67657910       0.58616464       0.17885012       0.15112445      -0.77065513
W        4.86485474       4.96136083       4.79462649      -1.85324296       1.44993422       4.56617853      -0.36233102      -1.12992825      -0.62448174
16
Lattice="6.376 0.0 0.0 0.0 6.376 0.0 0.0 0.0 6.376" Properties=species:S:1:pos:R:3:momenta:R:3:forces:R:3 Temperature=439.1490080095569 Step=220000 energy=-203.03385832222145 free_energy=-203.03385832222145 stress="-0.010169943482719273 0.00027374670489082405 -0.0017038043824637208 0.00027374670489082405 -0.01243819356281777 0.0011029760408058956 -0.0017038043824637208 0.0011029760408058956 -0.011649723608326314" pbc="T T T"
W       -0.01419477      -0.12001011       0.04587111       2.23238032      -2.91935837      -0.53720083       0.21073609       0.56446887      -0.59191329
W        1.50101488       1.50304993       1.59974750      -1.49416320      -5.22042241       2.55908163       0.75296128       0.84160333      -0.54420996
W        0.13514850      -0.03156477       3.18274748      -1.03391438      -2.70010936      -1.86146022      -1.14123485       0.34073425       0.35968953
W        1.53308242       1.59065982       4.83055966      -0.14360277      -2.17113815       0.26737872       0.53490275       0.37420009       0.02132189
W       -0.08167905       3.26363037      -0.00440970      -1.14718297      -4.92223029       1.70046189       0.53294123      -0.32736360      -0.31774725
W        1.56359123       4.64676462       1.60113511       0.95560197      -5.22015989      -0.49707300       0.40715191       0.55172894       0.14395887
W        0.01181648       3.04939090       3.14392372       2.27012806       4.16750267      -0.26069492      -0.19217841       0.79322128       0.61297364
W        1.70725524       4.78280999       4.58838445       1.94719937       3.22649854      -0.29330421      -0.70481765      -0.48119027       1.19095925
W        3.09779161      -0.06328107       0.02554444      -2.73104562       5.24379383      -2.98746057       0.29991016       0.53090598      -0.10185080
W        4.78171804       1.59915693       1.54466854       1.04245872       3.04174350       5.01714427      -0.07296792      -0.32452512       0.05800851
W        3.13265816       0.12942529       3.23053559       1.35463960       2.05313634      -2.12912395       0.54314242      -0.50676967      -0.33097940
W        4.75511211       1.66488987       4.87766101       0.06812570       4.60557059       4.55797243       0.17442787      -0.49950851      -0.25037248
W        3.20152936       3.33743373       0.02233299      -1.29617419       1.50311662       1.48538557      -0.19607077      -1.00072148      -0.34907184
W        4.78128928       4.82492819       1.65947809       0.90631018      -0.07673346      -4.39738259      -0.08251730      -0.02143819      -0.13852435
W        3.36699380       3.14492957       3.11280262      -1.02210975       1.57315300      -1.53843592      -1.12822058      -0.00407739       0.66330188
W        4.78287269       4.93378672       4.79501736      -1.90865104      -2.18436317      -1.08528830       0.06183378      -0.83126851      -0.42554422
16
Lattice="6.376 0.0 0.0 0.0 6.376 0.0 0.0 0.0 6.376" Properties=species:S:1:pos:R:3:momenta:R:3:forces:R:3 Temperature=568.2870399346642 Step=230000 energy=-202.8911484830765 free_energy=-202.8911484830765 stress="-0.013140511217315371 5.8376987171288214e-05 -2.2797944820623566e-05 5.8376987171288214e-05 -0.017904029377641534 -0.00022351477954744126 -2.2797944820623566e-05 -0.00022351477954744126 -0.016662134523128373" pbc="T T T"
W       -0.00744720      -0.10690437       0.08171733      -5.95229894      -2.15478392      -0.97354341      -0.11235152       0.49308369      -0.84363773
W        1.44474757       1.50676707       1.53765464      -1.93650641      -3.73162122       1.59213682       0.96637806       0.73280533       0.11410845
W        0.08886109       0.06571113       3.22061476       0.32607419      -3.81130130      -2.82219542      -1.61250444      -0.71720730      -0.23888645
W        1.57522553       1.57024953       4.63490329      -2.21678595       0.42294253       2.05551104       0.03253545      -0.10098993       1.56876730
W        0.05454549       3.19117538      -0.03903011       2.64379801      -7.21158491      -1.73787828      -0.09154657       0.51418040      -0.23041478
W        1.67516040       4.81139385       1.71380450       1.78576025      -4.39810411      -3.58069189      -0.55391653      -0.50404790      -0.56818028
W       -0.01351694       3.10902753       3.16968137       1.78046473       3.38813366       2.66681669       0.01055059       0.81791446       0.46805395
W        1.70405069       4.84553606       4.68206481      -1.37723894      -0.03078213      -0.05577156      -0.63416707      -0.40019297       0.59403616
W        3.12810221       0.01965252       0.05863912      -0.88643415       9.10436754       1.79667570       0.54596316      -0.31256000      -0.30833557
W        4.74665940       1.83803971       1.48069976      -2.03926380       0.09997335       3.14958761       0.36729250      -2.03989043       0.56928517
W        3.20024319       0.01863695       3.16379016       4.85142960      -0.01800967       0.06368708       0.83830387       0.09726469      -0.06918009
W        4.72896820       1.62706528       4.90628511      -1.23126993       5.11461618       1.44935762       0.41505330      -0.33703715      -0.54980874
W        3.11844949       3.21087771       0.06405914      -1.34082179      -0.18850333       0.90530069      -0.00338814       0.18044317      -0.76629032
W        4.85067132       4.68802583       1.57156905      -1.00901276       0.02748950      -4.62139939      -0.41500205       0.76918733       0.40927447
W        3.20359467       3.04163790       3.22812882       1.64005362       0.07652043       0.46649291       0.01010495       1.05742689      -0.23328376
W        4.75768488       4.81910794       4.78141822       4.96205226       3.31064739      -0.35408621       0.23669444      -0.25038028       0.08449221
16
Lattice="6.376 0.0 0.0 0.0 6.376 0.0 0.0 0.0 6.376" Properties=species:S:1:pos:R:3:momenta:R:3:forces:R:3 Temperature=369.9491679997138 Step=255000 energy=-202.81082562698563 free_energy=-202.81082562698563 stress="-0.015805237578576027 -0.00090930836181537 -0.0008973261576090066 -0.00090930836181537 -0.01148158796310316 -0.0008164242493372449 -0.0008973261576090066 -0.0008164242493372449 -0.016982942292858502" pbc="T T T"
W       -0.05149885      -0.00262186       0.08886123       0.22268774       3.61419914      -2.29541858       0.64799506       0.22103014      -0.52432540
W        1.63548809       1.51770558       1.70996661       0.49727576      -1.81508036       0.13060496      -0.20272842       0.26806157      -0.19948381
W       -0.05611629      -0.06647114       3.20013188       0.14732353      -1.00780906      -4.55056821       0.10279267       0.20145462      -0.25560323
W        1.55089536       1.48335437       4.70696962       0.67750946       1.66197897       3.99291111      -0.26826444       0.79478272      -0.18254364
W        0.07098353       3.00321503      -0.01347137       0.02170488       2.43609740       0.08460147      -0.30812487       1.11502010       0.59179509
W        1.78786547       4.74282305       1.63141282      -3.50397551      -1.82791389       0.88274000      -1.40780976       0.59866192      -0.40950377
W        0.04635571       3.27032883       3.09987002       3.65967988       1.20868822       2.38079821      -0.50018688      -0.59074205       0.31145142
W        1.51283017       4.72274371       4.76147587      -2.27671837      -3.37245064      -0.46362773       0.42389176       0.42112460       0.17423526
W        3.11161442       0.22296580      -0.14955565      -4.09331431      -2.80028531      -0.58534901       0.39289329      -1.64156171       1.02467124
W        4.69227912       1.60770268       1.64139200       5.80232957      -3.19092824       1.35875781       0.47093603       0.36599695      -0.26281952
W        3.30509174      -0.07461873       3.18060215      -0.93823354      -0.20882775       0.99914809      -0.32213821       0.35137605       0.38693182
W        4.75152765       1.69243057       4.84228163       2.47360924       4.08610488      -3.52945602       0.44302919      -0.38257477      -0.57903285
W        2.98445623       3.22052751       0.01048573      -1.85283838      -1.36459541       0.34713039       1.31440614      -0.34523679      -0.28161725
W        4.80477762       4.88888250       1.41627314      -0.95203171       1.93638459      -0.48158831      -0.26526816      -1.11126641       0.78782513
W        3.23732223       3.23830580       3.26308541      -3.84111547      -1.44217627      -0.22308153       0.02133827      -0.07329624      -0.42188164
W        4.87212779       4.78872628       4.86621889       3.95610721       2.08661373       1.95239736      -0.54276167      -0.19283071      -0.16009885
16
Lattice="6.376 0.0 0.0 0.0 6.376 0.0 0.0 0.0 6.376" Properties=species:S:1:pos:R:3:momenta:R:3:forces:R:3 Temperature=393.8019346833029 Step=5000 energy=-203.12041554080807 free_energy=-203.12041554080807 stress="-0.01068397678472943 9.587813470629268e-05 0.00035752577851456594 9.587813470629268e-05 -0.012462490857292096 8.911285240715961e-05 0.00035752577851456594 8.911285240715961e-05 -0.01147010161781362" pbc="T T T"
W       -0.03156456       0.14133575       0.00114817       2.67094322      -3.39354724       1.14222383       0.36134847      -1.62831215       0.09010064
W        1.59779224       1.56659930       1.53414081      -2.90427891       3.38903970      -2.92934791      -0.06770236       0.44035189       0.52546685
W       -0.03478285       0.05156239       3.19777808       0.99907223       0.81736121       2.87130132       0.67833230      -0.74104844      -0.21944698
W        1.66069032       1.62566443       4.80582618       1.59158746      -1.23883280      -2.30639344      -0.63300553       0.01577428      -0.19675621
W       -0.10511965       3.08694065      -0.04248604      -2.86512014      -3.12803810       1.25161265       0.98996847       1.15722676       0.21262408
W        1.68176418       4.82703989       1.63884763       4.17113468       0.14443195       1.48336000      -0.81020087      -0.28482053      -0.54361895
W       -0.06617187       3.24879159       3.08323255      -1.40821891      -3.98134632      -0.84590805       0.70737207      -0.27100192       0.59754652
W        1.63304911       4.79411339       4.82516028      -0.40543468      -0.11035725      -0.28495085      -0.38840024      -0.11887857       0.05484809
W        3.17728236       0.03735674       0.08741418       0.51616167       1.33899457       0.93433646       0.38638548      -0.63049861      -0.64268019
W        4.78314544       1.58212221       1.58242026       4.57405270       3.35299017      -1.67577519      -0.34756398      -0.00879396       0.26178219
W        3.13437833       0.06162865       3.33366291      -3.83141622       0.92178387       0.15023421       0.30974569      -0.92295495      -0.94955604
W        4.88790879       1.48139896       4.69314870      -3.00277101      -2.31284640       0.35973623      -1.04018975       1.12680618       0.49182932
W        3.21650171       3.15245107      -0.01332383      -4.96921757       5.70265680      -1.05272959      -0.13060796       0.39860984      -0.03225141
W        4.80484528       4.73209314       1.61339521       4.12435159       2.59740657      -0.48151108      -0.32951584       0.55282565      -0.12535754
W        3.06249768       3.16022317       3.15072842      -1.68972384      -3.67611868       0.54052265       0.90012448       0.48463502       0.32746422
W        4.85378350       4.70667866       4.76490645       2.42887772      -0.42357807       0.84328876      -0.58609042       0.43007951       0.14800543
16
Lattice="6.376 0.0 0.0 0.0 6.376 0.0 0.0 0.0 6.376" Properties=species:S:1:pos:R:3:momenta:R:3:forces:R:3 Temperature=433.5685156341742 Step=20000 energy=-203.0506017255535 free_energy=-203.0506017255535 stress="-0.006022493776139409 -3.2755826451287675e-05 -0.0007083796824511881 -3.2755826451287675e-05 -0.011060155851229391 -0.0004558294676179699 -0.0007083796824511881 -0.0004558294676179699 -0.013266061451190438" pbc="T T T"
W        0.09016278      -0.05544283       0.01198446       1.90233992       1.40487499      -0.19356659      -0.57769952       0.65295147      -0.14465358
W        1.49504573       1.69965418       1.63173036       1.08506848      -7.46437417       0.62158312       0.60438223      -0.75398487      -0.34100881
W        0.15662493      -0.00450027       3.18354544      -6.86975352       3.12677656      -0.99367819      -1.35448483       0.23436997       0.15770586
W        1.51827818       1.51800529       4.80713438       2.25545564      -0.40240431       1.92050677       0.78781221       0.34151669      -0.20804533
W        0.05441955       3.30139563      -0.08281837       0.14172365      -0.16127717      -1.24243064      -0.52197559      -1.03401199       0.51058242
W        1.59416740       4.78458948       1.60637526      -0.82028087      -0.72778600       0.58606975       0.06462852      -0.00104189       0.08302365
W       -0.15500515       3.11313333       3.28712424       0.27717984       4.36090258       3.47402994       0.96537867       0.36051609      -0.51185312
W        1.60573665       4.73763089       4.75229043       1.48699109       4.66290683       1.12528432       0.12346643       0.42902292       0.03396336
W        3.24470382      -0.02994077       0.02329272      -3.18793738       0.63166363      -4.06150850      -0.38920921       0.23184674       0.07059135
W        4.71187199       1.68854368       1.48817242       0.20397159      -3.15194420       1.24410969       0.79708656      -0.72615383       0.74285658
W        3.32332201      -0.05747776       3.09029456       1.13243943      -0.51427064      -5.18345793      -0.87965905       0.85739907       0.48896289
W        4.68727021       1.60044194       4.81591455       2.83567625      -1.20374345       1.59131746       0.43460869      -0.54410679      -0.26245175
W        3.22243753       3.17108994       0.01373808      -2.09471990       2.56039338       1.94965039      -0.56907470       0.21427067      -0.07671359
W        4.89554703       4.78455501       1.66328539       1.42512255      -4.47178361      -1.64484191      -0.53895584       0.06884669      -0.57189784
W        3.11694766       3.26832361       3.15743780      -0.67129938       0.12444053       3.46713726       0.31936063      -1.04700981       0.21955202
W        4.69446968       4.73599862       4.80649823       0.89802260       1.22562505      -2.66020494       0.73433480       0.71556887      -0.19061411
16
Lattice="6.376 0.0 0.0 0.0 6.376 0.0 0.0 0.0 6.376" Properties=species:S:1:pos:R:3:momenta:R:3:forces:R:3 Temperature=618.8700652881125 Step=175000 energy=-203.00979569234175 free_energy=-203.00979569234175 stress="-0.009400299079931328 -0.00047990207036759233 -0.0006935086407996388 -0.00047990207036759233 -0.010370710487256731 0.0005439615390134168 -0.0006935086407996388 0.0005439615390134168 -0.013269929570062039" pbc="T T T"
W        0.08575229      -0.03164209      -0.12156383       2.60205002      -1.05612066       1.17321712      -0.38650001       0.83148862       1.01475852
W        1.68110814       1.59050845       1.66039576      -6.11274713       6.32781782       0.91030199      -0.36752719       0.00743789      -0.47079199
W       -0.05079947       0.07668609       3.29837508      -0.23683561      -0.45515569       1.64143763       0.18954347      -0.69085868      -0.85289488
W        1.63876461       1.57529574       4.56123582       0.35686329      -1.40111918      -0.04122368      -0.11158985       0.57654834       1.48145743
W        0.02338907       3.07247228       0.00525401       1.95916374       2.53753487      -1.69744408       0.00631464       0.26085731       0.17126344
W        1.61907159       4.90382578       1.58400919       3.03453259      -6.09430638      -5.16115694      -0.52548759      -0.80404873      -0.26327535
W       -0.10978781       3.23971089       3.18699936       0.50115455       4.73002205       0.60167622       0.74810911      -0.37431842      -0.33339059
W        1.45345471       4.75321572       4.73500592       0.12635702      -0.71278024      -0.46212105       1.01828051      -0.10114471       0.54702879
W        3.24521046       0.03693427      -0.01108758      -5.87174312      -1.14490638      -1.53167971      -0.49712279      -0.16654465       0.10769421
W        4.85305032       1.48781870       1.75256162      -2.31525056      -0.45572129       4.75299632      -0.66022723       0.72080055      -1.45261829
W        3.18857804      -0.14490451       3.25887076       0.67391780      -1.35724467       3.28084267       0.22865998       0.77123214      -0.49455943
W        4.67190060       1.64199896       4.77886625       4.00353654      -1.22948585       1.46679173       0.50601492      -0.07415480       0.41325904
W        3.11321861       3.24098226       0.01895099      -4.45047807       3.52475059      -5.28492010       0.37659700      -0.55416263       0.11883382
W        4.82435695       4.74696781       1.55396572      -0.42699158       5.13017490      -0.78399505       0.08078732       0.33605398      -0.15293132
W        3.20751968       3.28863247       3.13515688       5.60925050      -3.50650964       3.19098705      -0.21696617      -0.41177836       0.05747319
W        4.81121221       4.77749714       4.85900399       0.54722001      -4.83695025      -2.05571013      -0.38888610      -0.32740785       0.10869341
16
Lattice="6.376 0.0 0.0 0.0 6.376 0.0 0.0 0.0 6.376" Properties=species:S:1:pos:R:3:momenta:R:3:forces:R:3 Temperature=531.6247636572854 Step=180000 energy=-202.8294412728605 free_energy=-202.8294412728605 stress="-0.013207272379761817 0.00046027766537446417 0.0010000547700729366 0.00046027766537446417 -0.014624819801289457 0.00013374656106186498 0.0010000547700729366 0.00013374656106186498 -0.015319266021781363" pbc="T T T"
W        0.00245417       0.04980196      -0.10729458       3.78060594      -3.36857005      -1.07929084      -0.10553305       0.34441896       1.01184425