16
Lattice="6.376 0.0 0.0 0.0 6.376 0.0 0.0 0.0 6.376" Properties=species:S:1:pos:R:3:momenta:R:3:forces:R:3 Temperature=838.8823535994986 Step=12500 energy=-202.48600461937468 free_energy=-202.48600461937468 stress="-0.01635608255487544 -0.0006417456808022268 -0.0007920254221043197 -0.0006417456808022268 -0.02483475649684787 -0.00044389979543234194 -0.0007920254221043197 -0.00044389979543234194 -0.023526731025609135" pbc="T T T"
W        0.18440922      -0.08756616       0.02248364      -1.10358736      -0.67375338      -2.97621061      -1.32569914       0.17719838       0.47805494
W        1.61480988       1.82904139       1.43589783      -4.00947432      -6.69621669       0.05232467      -0.52445311      -1.12115051       0.77665519
W        0.09135873       0.23549183       3.29966315      -9.54509390       2.60886836      -5.81574450      -0.68875700      -1.49267533      -1.34398898
W        1.62453313       1.42786062       4.85299298       2.88402498       0.57193434      -0.88119676       0.07226849       1.91450040      -0.21091572
W       -0.07358336       3.21264901      -0.06149704       2.50365659       3.47511230      -2.40247680       0.19843048       0.06496295      -0.08943713
W        1.46050731       4.68477147       1.68240904       1.05295627       1.79326612       0.03365994       0.79618536       0.54680290      -0.24178793
W       -0.12710254       3.18663734       3.19774791       3.61159279      10.00618013       3.12448243       0.81496302      -0.53982972       0.61339370
W        1.71028926       4.81000564       4.77136240      -3.26416311       2.58327538       7.90462587      -0.84806488      -0.49408382      -0.42826393
W        3.22608776      -0.00599098       0.06606778       0.10270714       0.32993990      -1.35420228      -0.37150650      -0.99896545       0.25413359
W        4.73494456       1.56791520       1.50666463      -1.44835704       2.77635415      -5.75631708       0.67847076       0.17496592       0.37317726
W        3.09250762       0.08566504       3.09433720       2.71605425      -5.77055225       1.01434266       0.51923473      -0.52222372       0.15737944
W        4.67468658       1.38934249       4.92036645      -0.17995897      -3.11898375      -0.68732911       0.84880392       1.14536102      -0.95197834
W        3.19172452       3.26934017      -0.08894482      -1.71325447      -1.55680605       1.87223992       0.29561870      -0.08613522       0.39902622
W        4.77232531       4.71732799       1.75962258       1.29774698      -5.86250516       3.95017302       0.29336152       0.81372053      -1.00135193
W        3.24478993       3.11351858       3.11445610       3.87999034       1.86497720       0.40841151      -0.52298769       0.27471451       0.75781536
W        4.83371210       4.81999040       4.68237014       3.21515983      -2.33109061       1.51321712      -0.23586865       0.14283716       0.45808826
16
Lattice="6.376 0.0 0.0 0.0 6.376 0.0 0.0 0.0 6.376" Properties=species:S:1:pos:R:3:momenta:R:3:forces:R:3 Temperature=758.6154592566617 Step=92500 energy=-202.33124841114517 free_energy=-202.33124841114517 stress="-0.022125496312970797 0.0008751815114448109 -1.927612024383634e-05 0.0008751815114448109 -0.02076627738758176 -0.000286229126907375 -1.927612024383634e-05 -0.000286229126907375 -0.018500733497789475" pbc="T T T"
W       -0.07396420      -0.01428861      -0.08775768       7.79043349      -5.59788936      -7.18482755       0.38488517       0.15261458       1.00193269
W        1.44925689       1.70873562       1.67445021      -3.38028944       1.13694986      -4.42927008       1.49721132      -1.77058847      -0.95311027
W       -0.18108744       0.02199177       3.28265216      -1.35935052       1.33644437       4.24180869       0.94645560      -0.04423569      -0.90113865
W        1.43443875       1.47051786       4.83508613      -1.11152767       1.06721960      -6.95514699       1.46169841       0.75289948      -0.09313074
W        0.16781203       3.28708174       0.04495106      -2.59445488      -5.39436341       3.20594151      -0.74301972      -0.93297066      -0.05641100
W        1.71087215       4.94009274       1.55460368      -3.87479064       2.77224330       3.32690389      -0.67080974      -0.08475999       0.32223885
W        0.10561639       3.15389392       3.16226067      -1.54053827      -1.69410077      -0.66433266      -0.79954866       0.26462356       0.01741657
W        1.48984047       4.76694755       4.62908136      -5.01638164       2.65990190       1.02307068       1.36308515       0.38276891       0.91513260
W        3.30718506      -0.17346997      -0.04981721      -2.32066688      -4.23583372      -1.86001490      -0.96748325       1.26348890       0.09704703
W        4.65989106       1.63864351       1.69736129      -0.54712967       1.82295282       0.28615614       0.73798398      -0.12836528      -1.24267696
W        3.30323118       0.11279341       3.22953986       3.52781539       2.87974687       5.00741393      -0.98073280      -1.03707790      -0.06888202
W        4.70589848       1.60512286       4.84409762       4.27561707       3.57821247      -0.42795513       0.24494532       0.25685668       0.17055439
W        3.22515532       3.20969696       0.01174618      -2.75537156      -0.45841209       3.57486742      -0.79451168      -0.22308810      -0.12414854
W        4.85891041       4.76947310       1.53572852       0.89689962       0.14438526       2.46454185      -0.35241283       0.08500680       0.52516658
W        3.17552055       3.23380240       3.12196009       7.29107589       3.05711172      -1.45097125      -0.24971109      -0.25556446       0.55140028
W        4.91742289       4.52496520       4.77005604       0.71865970      -3.07456881      -0.15818555      -1.07803519       1.31839164      -0.16139080
16
Lattice="6.376 0.0 0.0 0.0 6.376 0.0 0.0 0.0 6.376" Properties=species:S:1:pos:R:3:momenta:R:3:forces:R:3 Temperature=873.3099781626415 Step=177500 energy=-202.42760310822501 free_energy=-202.42760310822501 stress="-0.01945951662655037 -0.000574347036586892 -0.002243892575484971 -0.000574347036586892 -0.02625489873196493 -3.712260388297974e-05 -0.002243892575484971 -3.712260388297974e-05 -0.02124629937820352" pbc="T T T"
W        0.13720275      -0.11155340      -0.03712666       0.30209638       6.13602891       0.16215732      -1.46935182       1.19729808      -0.21711998
W        1.73264137       1.56950041       1.51508299       3.91034164      -4.04659604       4.10288462      -1.18804794       0.41903580       0.47576405
W        0.07025011      -0.03443919       3.05469972       1.47892885       4.85371085       1.08496672      -0.66327648       0.74982081       1.05600246
W        1.50694164       1.64295153       4.80128770       1.12713267      -5.82552586      -3.15169162       0.41790641      -0.23244458       0.15448184
W        0.05204493       3.32229054      -0.00371483       0.76303670       4.97479435      -1.40747210      -0.97864195      -1.42098784       0.25642159
W        1.62761522       4.90602827       1.51065904       1.38565882       7.40333376       2.38560919      -0.46640151      -1.26413627       1.60047207
W       -0.02106390       3.14298517       3.24028020      -7.08513863      -0.54752274      -4.35582198       0.09696120      -0.09147211      -0.79198577
W        1.52910372       4.71139028       4.79028332      -4.09108003      -1.86012737       1.25813443       0.39948386       0.44678055      -0.77874335
W        3.28352248      -0.18485410       0.00974975       0.55572511      -0.09893348       3.26636411      -0.53482420       1.89167977      -0.65330119
W        4.76015392       1.52204531       1.63816535      -1.11621643       1.79624427      -4.16860175       0.64638752       0.45381560      -0.46661588
W        3.16027689       0.12078675       3.27263154       0.71199791       2.37962119       2.94240427       0.02406563      -0.58992771      -0.46081164
W        4.64030177       1.54462410       4.83435797      -3.67939583       0.32463689       5.99722823       1.39412121       0.65342885       0.03086115
W        3.15458454       3.29854641       0.18607140       0.78407032      -8.11580965      -6.01785526       0.51324285      -1.35999600      -1.93802419
W        4.65619668       4.74756966       1.58351953      -0.40629695       3.84565168      -2.79412599       1.82002563       0.40994087       0.78753409
W        3.23091461       3.21423382       3.20584270       2.92458062      -6.36279783      -3.06095849      -0.63160442      -0.52543767       0.29551340
W        4.73531329       4.84389450       4.65421028       2.43455886      -4.85670893       3.75677830       0.61995403      -0.73739816       0.64955138
16
Lattice="6.376 0.0 0.0 0.0 6.376 0.0 0.0 0.0 6.376" Properties=species:S:1:pos:R:3:momenta:R:3:forces:R:3 Temperature=846.0959969829886 Step=207500 energy=-202.22386923190442 free_energy=-202.22386923190442 stress="-0.012773706811046517 -0.0015794904891242047 -0.0007004551953697131 -0.0015794904891242047 -0.024814881646212806 -0.0002410246571991232 -0.0007004551953697131 -0.0002410246571991232 -0.022772408779362194" pbc="T T T"
W        0.14487679      -0.25885985      -0.12307747       2.73940420      -1.31250803      -1.96134431      -1.20092536       2.02007208       0.96968367
W        1.72886034       1.43197396       1.48490989       0.52057151       2.78319011       3.53407858      -0.98374730       1.26075990       0.72407771
W       -0.04174998      -0.00197039       3.13397135      -7.29451858       8.11033368       2.01366379       0.28297972       0.27128589       0.31150631
W        1.32092834       1.61778254       4.75876862      -1.35620076      -3.56164998      -0.35524800       1.72031933       0.36622461       0.42836113
W        0.06067357       3.27349189       0.14888948       2.66334200       3.68172915      -1.42246801      -0.19033304      -0.76692780      -0.84376336
W        1.65518232       4.80303489       1.65085848      -4.13976313      -1.14194294       3.37681037      -0.01986405      -0.26364797       0.08776544
W       -0.01493371       3.09572607       3.04392074       4.71995656      -4.92881254       1.38694182      -0.08588168       0.25172494       0.64103952
W        1.53895849       4.76017825       4.69402908      -1.03248597      -0.19879458       4.11872061       0.47480633      -0.52677546      -0.06750886
W        3.24105929       0.00621163       0.03666080       3.33732200       3.75558126       1.94719031      -0.66943480      -0.01329016      -1.11165232
W        4.75754481       1.47747531       1.64147572      -2.35580627       4.41805031      -7.20556665       0.46415380       0.84965674      -0.65376069
W        3.23162634       0.08665636       3.34285904      -0.52599841       1.31981832       2.64028375      -0.68939538       0.00979516      -0.52541797
W        4.61719699       1.71476176       4.96754406      -0.80925213      -1.85417853      -0.58812098       1.60411313      -0.49954828      -1.01353141
W        3.29740177       3.37437324       0.03791219       1.14101295      -5.61415820      -0.62793290      -1.33692937      -1.45294413      -0.27667290
W        4.70352970       4.85594882       1.53633501       0.09795625       5.43099114      -0.52091432       0.92364653      -0.40147404       1.06599017
W        3.23331466       3.17984100       3.20802854      -2.93606749      -8.58259225      -7.38500148      -0.51637741      -0.36828485      -0.04571864
W        4.78153028       4.83937457       4.69291446       5.23052727      -2.30505691       1.04890742       0.22286957      -0.73662663       0.30960221
16
Lattice="6.376 0.0 0.0 0.0 6.376 0.0 0.0 0.0 6.376" Properties=species:S:1:pos:R:3:momenta:R:3:forces:R:3 Temperature=549.9010631539543 Step=222500 energy=-201.96621767323063 free_energy=-201.96621767323063 stress="-0.01961391662846657 -0.0016296034620813698 -0.0016154337379502557 -0.0016296034620813698 -0.0318818571342532 -0.0022093564939286684 -0.0016154337379502557 -0.0022093564939286684 -0.03269153807788891" pbc="T T T"
W        0.01934198       0.04311893      -0.07081779      -1.15826548      -2.58202934      -0.32730867       0.14909878      -0.64990487       0.29215341
W        1.66465507       1.65667737       1.53040924       0.91399711      -3.28437927      -2.70569732      -0.02925181      -1.24723206       0.51283299
W        0.08943221       0.01959465       3.26939751      -0.52937389      -1.70314440      -2.26847469      -1.32254318       0.70941256      -0.07430988
W        1.56482239       1.84139442       4.68426797       0.58311811       2.31624160       3.58113149       0.54888164      -1.64690539       1.14707823
W        0.03678370       3.06287778       0.33398686      -2.50639859       0.97329703       2.19949487      -0.71549911       1.82208504      -2.50069345
W        1.44489238       4.90085294       1.85853009      -4.83797535      -1.42285568      -4.53020757       1.54616621      -0.66276492      -2.50567557
W        0.07671747       3.20419653       3.15235539      -0.36731421      -1.00610234      -0.74172599      -1.66936407      -0.62042672       0.10681472
W        1.57141173       4.65239766       4.68368756       6.23295404       1.81284523      -5.33260175       0.12039097       0.61408167       0.92746285
W        3.16293394      -0.07590938      -0.13291416      -1.29887513      -1.93514367      -5.11163442      -0.56455416       0.35927392       0.17387399
W        4.72811770       1.46799366       1.53762990       2.32219998       0.15444171       2.66067258       0.45659242      -0.01781019       0.08122781
W        3.19108192      -0.01854670       3.16210023       1.07201280      -1.45325625      -3.30824224       0.25130397       0.23800907       0.75685224
W        4.77104312       1.62721531       4.96318387      -0.04266380       2.59140862       4.23772589       0.32252648      -0.14205603      -1.13443651
W        3.17690015       3.24807130       0.01121992      -1.14919307       4.06212395       0.88791825       0.01685917      -0.00798164      -0.00894998
W        4.61814776       4.83475571       1.49712324      -0.47603665      -3.97407071       7.33097780       1.29448466       0.05281113       0.70127042
W        3.33030518       3.01077515       3.07982526       4.93992236       3.86109878       2.50483896      -0.41680981       1.55490605       0.69408486
W        4.80941330       4.78053473       4.69601492      -3.69810823       1.58952475       0.92313280       0.01171784      -0.35549761       0.83041385
16
Lattice="6.376 0.0 0.0 0.0 6.376 0.0 0.0 0.0 6.376" Properties=species:S:1:pos:R:3:momenta:R:3:forces:R:3 Temperature=1070.5546563922192 Step=267500 energy=-202.7109995249038 free_energy=-202.7109995249038 stress="-0.01864172205568411 0.0002686264121303182 0.0007314791065624033 0.0002686264121303182 -0.016930811591445247 0.0005153981199807075 0.0007314791065624033 0.0005153981199807075 -0.013967448038367983" pbc="T T T"
W        0.09117757      -0.00574667      -0.12722911      -4.57141192       4.97243523      -3.68615938      -0.55974745       0.46001539       1.12690530
W        1.74504839       1.73322174       1.66405060      -1.30167039       1.19705802      -3.05507850      -1.23259186      -1.28456077      -0.63220623
W       -0.01097517       0.05511938       3.32357137       2.55069165      -4.13791692      -5.76042983       0.17882381      -0.05642979      -1.23969194
W        1.66667455       1.48629501       4.85518120       3.59377533      -6.65501574       8.69490639      -0.01971302       0.95260950      -0.30483104
W       -0.03700295       3.15007279      -0.11235426      -5.31632756       0.06291034       0.81282339       0.28919861      -0.25191907       0.67109206
W        1.46005353       4.80556201       1.46071094       1.79701490      -0.03614874      -4.35657864       0.65935823       0.00169899       1.39592583
W       -0.10688549       3.10207765       3.10364035       1.27363420       6.65895495      -1.55408672       0.69086676       0.42433605       0.55905632
W        1.53278447       4.73383734       4.76306266       6.75288143       0.15605657       3.03622050       0.35146242       0.13960648      -0.32580016
W        3.29964117      -0.21104345       0.13436167      -2.66034262       1.21186918      -0.15703865      -0.85747132       1.61249604      -0.87697305
W        4.76341225       1.55233722       1.63840823       8.99921372      -0.53200838      -2.91848752       0.25243380       0.38152696      -0.39089694
W        3.15358653       0.12106061       3.21756436       4.29912750      -1.35679180      -0.10613710       0.28341476      -1.39948030      -0.23416316
W        4.73625609       1.65352073       4.80214019      -0.61417055      -4.53283939       4.37910098      -0.16435994      -0.66715994       0.08883131
W        3.15930090       3.25220499       0.02401788      -8.78979705       1.01735655      -0.82925642       0.31089225      -0.33192526       0.10239077
W        4.91150774       4.81436664       1.49395715      -1.91214319       0.87202570       5.20330287      -0.59958166      -0.32110115       1.26794647
W        3.09890758       3.24492956       3.23622818      -2.55751388       7.17929397       4.13058284       0.58158734       0.21565339      -0.68666436
W        4.79251284       4.76818450       4.77868858      -1.54296158      -6.07723954      -3.83368420      -0.16457274       0.12463347      -0.52092118
16
Lattice="6.376 0.0 0.0 0.0 6.376 0.0 0.0 0.0 6.376" Properties=species:S:1:pos:R:3:momenta:R:3:forces:R:3 Temperature=745.2861978680272 Step=8500 energy=-202.81111772606675 free_energy=-202.81111772606675 stress="-0.01550082035354411 0.00030437889871267975 -0.00029476191375614886 0.00030437889871267975 -0.014601537543126422 0.0007409466579686555 -0.00029476191375614886 0.0007409466579686555 -0.019975811409698868" pbc="T T T"
W        0.10062137      -0.08108326      -0.06495228       2.95716829       0.98817534       2.17558199      -0.66221802       0.30879247       0.43708220
W        1.58367012       1.54767511       1.63069944       2.67213395      -0.03238527      -1.37340540      -0.52528523       0.24115240      -0.81271957
W       -0.01861269       0.08650466       3.34977900      -1.81534278      -2.63415025       3.53363012      -0.22835555      -0.81511563      -0.90771932
W        1.57173010       1.50206650       4.73871198      -8.17067810      -1.32569623       1.94546279       0.45698979       1.05614499       0.68626469
W        0.07261457       3.19969994      -0.09134340       0.87072744       0.65703954       0.51229839      -0.35262202      -0.11246385       0.36141020
W        1.48708446       4.73013807       1.67100706      -4.28317826      -0.51196403      -2.19274160       0.19664192       0.62880187      -0.49662216
W       -0.07766364       3.15392633       3.15715730      -2.35635063       5.17752040      -4.85976480       0.25663431       0.15729277       0.66440745
W        1.84752889       4.72470228       4.76059844      -0.13521740      -2.51018659       4.75105038      -1.92195764       0.27634361      -0.18538457
W        3.21768176      -0.04599303       0.01308675       2.12425084      -3.37960179       1.26963229      -0.16606243       0.46113486       0.43097632
W        4.86002123       1.62258494       1.57818605       1.26171483      -3.65844885       7.02586317      -0.14142377      -0.39528993      -0.21037132
W        3.14481235       0.11930615       3.15000220       6.41897409      -2.93823998      -3.82224356       0.52689274      -0.73011323      -0.01067971
W        4.64824643       1.58512235       4.86805224      -3.49050426       4.84912708      -0.91637597       0.87363506       0.39579881      -0.49206264
W        3.26973172       3.32921082       0.04804156       5.76446893       6.14583361      -0.40535984      -0.77169480      -1.41389216      -0.17031140
W        4.72168046       4.72591512       1.63642262      -2.55697532       0.80333196      -6.51295021       1.16437780       1.00111550      -0.12199072
W        3.09825841       3.21889668       2.99038978      -2.51537370       2.01051493      -0.55179103       0.81615153      -0.58734993       1.38784635
W        4.72859445       4.83732741       4.82016123       3.25418209      -3.64086989      -0.57888674       0.47829632      -0.47235255      -0.56012580
16
Lattice="6.376 0.0 0.0 0.0 6.376 0.0 0.0 0.0 6.376" Properties=species:S:1:pos:R:3:momenta:R:3:forces:R:3 Temperature=768.7287579625342 Step=38500 energy=-202.52411729987693 free_energy=-202.52411729987693 stress="-0.02141627511911007 -0.0009614581988802139 0.0008637604891893942 -0.0009614581988802139 -0.016758813031971607 -0.002611280969674032 0.0008637604891893942 -0.002611280969674032 -0.021339458453489144" pbc="T T T"
W       -0.02116041      -0.04550506       0.09772303      -1.45840975       4.61900347       1.34874059       0.47455871       0.28739749      -0.58224834
W        1.53150886       1.70717570       1.60106953      -0.44659896      -4.65639187       1.24981895       0.54442186      -0.52690542      -0.43020922
W        0.00323099       0.01108343       3.29631880       3.85288621       4.71410232      -2.45161565       0.62226312      -0.67715460      -0.76375419
W        1.60162373       1.62184353       4.69493109       0.40112076      -6.06793381       0.83934934       0.69203790       0.00374108       1.07891746
W       -0.11571650       3.00639463      -0.05821418       3.96265328       3.04106639      -3.81973259       0.85341136       1.22288639       0.41693714
W        1.51902272       4.75693875       1.53328023      -0.57504158      -4.57313838       4.11337859       0.13678311      -0.25357519       0.05909396
W        0.03518235       3.11554777       3.28275120      -1.36493329      -1.60840461       4.29991666      -0.30474852       0.95248039      -0.48904968
W        1.70239239       4.77031725       4.82346324      -3.40250521      -4.93566059       1.83301762      -0.85573464       0.24306199      -0.11529166
W        3.22117140      -0.00535682       0.03921013      -1.91852913       5.19584000      -1.41014343      -0.52068720       0.54989933      -0.20407482
W        4.81762934       1.37673173       1.79694885       8.49404635      -1.61493615       3.52637028      -0.53908869       1.78039872      -1.48764376
W        3.04772095       0.03427364       3.03574939      -0.36375855       1.16337214       0.13316355       0.57589071      -0.32504504       1.01420135
W        4.86041430       1.60344484       4.77342005      -6.28893699      -0.90003974      -1.65333124      -1.41372365      -0.31500428      -0.04923497
W        3.27921216       3.34501596      -0.06795235       2.75037907       2.88163174      -5.01556314      -0.52280635      -1.65669723       0.28585685
W        4.75094300       4.64437121       1.53526988      -1.97416924      -2.93666900      -4.93125187       0.65671434       0.94357549       0.73370370
W        3.21088399       3.32954654       3.09948525      -3.07540646       2.68655405       5.62324587      -0.10380727      -0.89336471       0.63320176
W        4.81194076       4.98417699       4.77254585       1.40720352       2.99160403      -3.68536354      -0.29548480      -1.33569438      -0.10040557
16
Lattice="6.376 0.0 0.0 0.0 6.376 0.0 0.0 0.0 6.376" Properties=species:S:1:pos:R:3:momenta:R:3:forces:R:3 Temperature=794.0701759223193 Step=58500 energy=-202.13776919169112 free_energy=-202.13776919169112 stress="-0.023842129492108455 -0.0006558939304646258 -0.000515733729401886 -0.0006558939304646258 -0.02429755526106591 0.0014573881938752704 -0.000515733729401886 0.0014573881938752704 -0.024726079053523916" pbc="T T T"
W       -0.06378000       0.06362676       0.18565338      10.53137355       3.53262793      -6.17803633       0.84771631       0.05164591      -1.00012237
W        1.54785832       1.65888900       1.65370397       1.95148305      -4.09996622       0.78228237       0.61319865      -0.17395571      -0.38582719
W        0.03371531      -0.23637674       3.21693538      -2.21015781      -3.09679616       1.63841672      -0.09207771       2.45178010      -0.77909382
W        1.72679971       1.59694896       4.78830763      -6.55745928      -4.61452307       3.03374846      -0.62103895       0.01789002      -0.10959744
W       -0.20627195       3.14777061      -0.01857642      -2.82177291      -2.44927682       0.42598070       1.98331278       0.05280564      -0.09794496
W        1.47929464       4.73783798       1.44245120      -4.48816606      -0.59771530       0.08735945       0.99547161      -0.40488289       0.82513983
W       -0.07801502       3.06376392       3.27312633      -2.10457112      -1.39030245       2.75838446       1.45494389       0.95311238      -0.62621275
W        1.51543814       4.96504383       4.68867506      -3.21317718       5.01470658       0.93182175       1.19606901      -1.77819755       1.35761652
W        3.16357453      -0.03586693       0.11824662       2.15953988       0.29564715       0.26196229      -0.26674035       0.62204704      -0.77457580
W        4.70528128       1.61069647       1.63365621       0.90171095      -4.74273572      -3.14253936       0.15537933      -0.33989237      -0.14393169
W        3.22644365      -0.04694664       3.14793451      -2.82660774       1.70491584      -0.62135735      -0.50134510       0.27240055       0.10459844
W        4.92709765       1.63011308       4.72651302       2.10839613       3.37403438      -2.92068336      -1.60987136      -1.23616293       0.63512981
W        3.19652207       3.18715632      -0.19667548       1.41465016       9.12309819       0.35075383      -0.50182574       0.14351452       1.02114850
W        4.83359217       4.71260934       1.62475958       3.09501346       0.38979588      -2.21661506      -0.71635651       0.38023323      -0.65134402
W        3.39519013       3.28462560       3.10654281       1.88263761      -5.49090619       5.33714516      -2.16033527      -0.42898251       0.84989391
W        4.85325939       4.91610850       4.86474619       0.17710731       3.04739597      -0.52862373      -0.77650061      -0.58335542      -0.22487698
16
Lattice="6.376 0.0 0.0 0.0 6.376 0.0 0.0 0.0 6.376" Properties=species:S:1:pos:R:3:momenta:R:3:forces:R:3 Temperature=933.1474464505877 Step=218500 energy=-202.37413832629585 free_energy=-202.37413832629585 stress="-0.015386054845165144 0.0006772337150023066 -0.0021893067721678577 0.0006772337150023066 -0.023130962794558976 0.0006714588009866074 -0.0021893067721678577 0.0006714588009866074 -0.021535898124306587" pbc="T T T"
W        0.08460469       0.17377375      -0.02971560       3.64647464       1.34885767      -3.91731687      -0.69163270      -0.76266034       0.08776356
W        1.52504240       1.49567857       1.57159013       0.70590157      -2.63616786      -3.24551288       0.54366974       0.53732793       1.09381639
W       -0.13132317      -0.02877622       3.34551422      -3.81375009      -2.73968008      -2.09936584       0.41274237      -0.23886227      -0.89423228
W        1.54402276       1.49642321       4.61066320      -3.84562524       6.89399527      -0.05832151       0.99063910       0.99839125       0.22971310
W        0.15939258       3.11263455       0.03100981       8.42597069      -2.99291998       5.73660818      -0.74438547      -0.00849510      -0.34127710
W        1.55541135       4.86403907       1.54890720       0.97822552      -0.72751872       6.71837320       0.32528567      -0.33275030       0.35070083
W       -0.09914550       3.25173726       3.16526932       1.21741228       0.40863692       3.45783918       0.76438745      -0.27354092       0.43913916
W        1.58663715       4.87767301       4.87516071      -0.51635753      -0.25199226      -1.06440277       0.28929644      -0.65364204      -0.77297861
W        3.34603724       0.10605153      -0.00794713      -3.66428803       2.46902865      -0.50929725      -1.21492891      -0.65721360      -0.37432130
W        4.61288851       1.47253017       1.70012102      -2.50072573      -3.56854149       0.48144812       1.45003498       1.43183008      -0.53577822
W        3.25594618      -0.15761518       3.07304389       0.66993233      -4.36722517      -2.92911880      -0.17046564       0.24264296       1.20827871
W        4.79383469       1.72205571       4.75760362      -5.47060641      -2.85903760      -4.51985489      -0.74144952      -0.37344200      -0.11546750
W        3.07801125       3.17137986       0.00935717       1.77761494       4.49715892      -0.83493349       0.44072227      -0.10125926      -0.06657904
W        4.99457877       4.68338692       1.45088678      -2.87710083       3.15247546      -9.26385458      -1.43526263       0.42750292       0.70675932
W        3.15853393       3.26878376       3.08141975      -0.90117492       4.61548802       6.66078787      -0.16423091      -0.09713886       0.70288878
W        4.79152718       4.74624411       5.07311590       6.16809681      -3.24255773       5.38692234      -0.05442224      -0.13869045      -1.71842580
16
Lattice="6.376 0.0 0.0 0.0 6.376 0.0 0.0 0.0 6.376" Properties=species:S:1:pos:R:3:momenta:R:3:forces:R:3 Temperature=784.9655648384127 Step=253500 energy=-202.58108085217512 free_energy=-202.58108085217512 stress="-0.01821088974630525 0.0014646723240578903 0.0008363302660867061 0.0014646723240578903 -0.019429826120959746 0.0016741916498680743 0.0008363302660867061 0.0016741916498680743 -0.01862626142046777" pbc="T T T"
W       -0.03228850       0.02953485      -0.05490555      -4.35213696       3.70293978      -1.10141498       0.03069808      -0.07086878       0.56450160