16
Lattice="6.376 0.0 0.0 0.0 6.376 0.0 0.0 0.0 6.376" Properties=species:S:1:pos:R:3:momenta:R:3:forces:R:3 Temperature=743.771890926158 Step=118500 energy=-202.8864280224772 free_energy=-202.8864280224772 stress="-0.013050217007800749 -0.000590930723971519 -0.0005831775848723756 -0.000590930723971519 -0.013522370265033634 -0.0001680129224940919 -0.0005831775848723756 -0.0001680129224940919 -0.014627249785919658" pbc="T T T"
W        0.16253187      -0.00025010      -0.10993453      -5.31918982       3.35156390      -3.19268902      -1.27763133       0.09250037       0.90967858
W        1.49799673       1.62776963       1.53896735      -1.91413782      -2.69436938      -6.01583968       0.53721579       0.06953544       0.90106401
W       -0.04694437      -0.08999017       3.08114175       2.31179020       2.40402154       3.90552910       0.00052038       0.72491606       0.69873254
W        1.71518960       1.51173695       4.71414387       0.88437676      -1.25005163       3.02481088      -0.92267211       0.70502863      -0.27646703
W        0.06606037       3.13226873      -0.06717877      -0.39702117      -0.79516483      -0.75858850      -0.38760361       0.37184950       0.18836161
W        1.70385384       4.80589153       1.67355495       2.46575289      -2.89461672      -3.41926733      -1.18786847      -0.60545696      -0.52441477
W       -0.09663484       3.18633784       3.25077966      -3.60338965      -5.00701452      -2.38698250       0.51252306       0.01745698      -0.04651743
W        1.53074288       4.88103578       4.73904238      -3.53425137       2.47651121      -4.35235786       0.48090768      -0.99782522      -0.00619509
W        3.14224543      -0.02395989       0.03399011       1.32776129       8.46844757      -3.10945096       0.23336446       0.65698224       0.27705007
W        4.72187006       1.68165718       1.66145276      -5.95607794      -2.72052134      -1.61301873       0.85078114      -0.57558415      -0.84500383
W        3.23637326      -0.00615530       3.12048454      -1.22402256       3.69655416       2.98744391      -0.02345319       0.17801154       0.21988353
W        4.79766841       1.52898571       4.82227037      -0.23410081      -2.53993568       3.74864707      -0.10254002       0.45867376      -0.05278102
W        3.09973226       3.17233565       0.06792279       6.76605523      -0.85807166      -0.95117740       0.43756044      -0.06964602      -0.54280569
W        4.86237197       4.73181109       1.55518356       2.01903033       3.00234475       3.88391874      -0.18656297       0.18716982       0.02690980
W        3.28442975       3.24460313       3.20568818       4.08936239      -0.71434437       4.87801467      -0.63890998      -0.38979224       0.24581316
W        4.57851280       4.87192234       4.96849100       2.31806206      -3.92535300       3.37100760       1.67436874      -0.82381976      -1.17330846
16
Lattice="6.376 0.0 0.0 0.0 6.376 0.0 0.0 0.0 6.376" Properties=species:S:1:pos:R:3:momenta:R:3:forces:R:3 Temperature=654.8984404932761 Step=123500 energy=-202.31877165171642 free_energy=-202.31877165171642 stress="-0.017934319811525077 0.001960707423244608 0.0007776341640101975 0.001960707423244608 -0.026629743061876886 0.0005297053760206405 0.0007776341640101975 0.0005297053760206405 -0.019154134474609376" pbc="T T T"
W       -0.04566930       0.14800245      -0.00001516       1.64812307       0.94419290      -0.09554713       0.61251499      -1.47313270       1.10382937
W        1.67017651       1.57438679       1.71503202       3.39166231       1.87674057      -2.53624473      -0.72143016       0.45097693      -0.37405085
W       -0.05258361       0.03296824       3.28344191       0.41004000       6.13529154      -1.33264886       0.66677879      -0.29757032      -1.52612445
W        1.57355724       1.54625079       4.91876774       2.85182442       0.05762186       4.38788038       0.24170804       0.60474284      -1.57925760
W       -0.06000541       3.04378927      -0.12575140      -4.68776510       0.39279773       4.53814200       0.87238757       1.54034152       1.02088119
W        1.48694978       4.77087540       1.65186963      -0.88518259      -1.71991712       3.75214052       0.53195761      -0.35273283      -0.47655287
W        0.02243389       3.17069577       3.15467685       0.19956243       3.79461453      -1.33696640       0.07727500       0.41066959       0.12584709
W        1.70066138       4.87234101       4.78881778      -8.83036088      -4.02838399      -0.02371166      -0.90623334      -0.89202367      -0.10077308
W        3.14263239       0.02782775      -0.02519990       7.38838279       1.44991214      -0.71247303      -0.18047094      -0.78257036       1.05010480
W        4.74996644       1.65669173       1.56460836       0.03307330      -3.75118907       1.49037120       0.22277939      -0.53605180       0.40569274
W        3.25139634       0.01274725       3.24152679      -5.38285141      -1.22616498       5.21143661      -0.69220664      -0.69371950      -0.95026504
W        4.68449658       1.50601522       4.82909623       1.82848322       2.53456367       1.09328670       0.96246227       0.89792550      -0.82393134
W        3.22497202       3.09436613      -0.11450125       0.65358121      -3.27050335      -6.24381243      -0.83752975       1.31698940       0.81385649
W        4.61400997       4.66872940       1.42922219       1.36427696      -0.37871169      -3.48365113       1.48171268       0.86480651       1.02676530
W        3.35751611       3.16099320       3.16393530       0.91044010      -1.28337699      -4.79760692      -1.35356065       0.81681367       0.27310493
W        4.93548968       4.96931970       4.78047289      -0.89328984      -1.52748773       0.08940487      -0.97814487      -1.87546479       0.01087332
16
Lattice="6.376 0.0 0.0 0.0 6.376 0.0 0.0 0.0 6.376" Properties=species:S:1:pos:R:3:momenta:R:3:forces:R:3 Temperature=915.5765273939759 Step=128500 energy=-202.52291069280994 free_energy=-202.52291069280994 stress="-0.02192889406087324 -3.365960235948117e-05 0.0005635205851212986 -3.365960235948117e-05 -0.021818426728522293 -0.0009164601240268777 0.0005635205851212986 -0.0009164601240268777 -0.017602689413331568" pbc="T T T"
W        0.13559847       0.11238613       0.02740585       0.57038459      -1.35667521      -1.08589798      -0.50189776      -1.08383199       0.53352876
W        1.71416245       1.74455212       1.55096449       3.12190617      -2.09184227      -3.19237871      -0.83132720      -0.80965242       0.38901409
W        0.01371742      -0.07158582       3.22939666       4.84450024      -7.34731205      -4.30366070       0.15166053       0.80538355      -0.87741247
W        1.55129158       1.57667710       4.70164083      -5.97353336       5.50429653       0.96780444       0.35405082       0.14677150       0.06369764
W       -0.06374797       3.11080126      -0.04873709       0.74850931       3.15647091       3.17949870       0.94686351       0.85433276       0.36976769
W        1.54667231       4.75841752       1.68260542      -3.56983596       2.35556881       6.20007996       0.53086624       0.14508093      -0.61665442
W       -0.15766594       3.16115094       3.16212365       4.00764760      -2.25345239      -7.42822888       1.06745127      -0.06147372       0.52808087
W        1.47394142       4.82963474       4.78534443       0.60174313      -3.47243791       0.29433449       0.74634931      -0.55381530      -0.11602694
W        3.23069600       0.00945073      -0.15239964      -2.53700610       0.01641329      -0.46579375      -1.08736043      -0.58531797       1.93685199
W        4.74307737       1.76032733       1.48482403       3.16604615      -1.04076261       4.17733768       0.50407802      -1.65465038       0.97769606
W        3.30718847       0.04331773       3.09466206      -5.10462513       1.81787039      -4.49601094      -1.24013672      -0.56917205       0.31374540
W        4.75673623       1.36933251       4.85855364      -3.80814768      -0.10470574      -6.23079534       0.57787997       1.61429681      -1.11194155
W        3.27622689       3.15794015      -0.05066852       2.41026584       3.44226507       2.48194298      -1.46954501       0.71053409       0.11375229
W        4.80021146       4.78175256       1.74147179      -1.95219643       1.24640260       2.80143005      -0.18359012       0.27498925      -1.31994132
W        3.19838492       3.16601957       3.24927516      -3.40334730       6.27679666       2.31931443      -0.25467186       0.42676176      -0.15698768
W        4.72950891       4.74582553       4.93953722       6.87768893      -6.14889608       4.78102357       0.68932944       0.33976319      -1.02717042
16
Lattice="6.376 0.0 0.0 0.0 6.376 0.0 0.0 0.0 6.376" Properties=species:S:1:pos:R:3:momenta:R:3:forces:R:3 Temperature=774.0125475767267 Step=133500 energy=-202.14978384872637 free_energy=-202.14978384872637 stress="-0.021577748653474414 -0.0015340782797797728 -0.0005161711625461254 -0.0015340782797797728 -0.01960043184630181 0.00021775892059561685 -0.0005161711625461254 0.00021775892059561685 -0.026623605920872342" pbc="T T T"
W        0.11935447      -0.08073399       0.05312210       2.41603544      -0.52556460       5.67624004      -0.92486975       0.44734751      -0.31955301
W        1.48128738       1.61551459       1.75032446      -1.55510994      -3.79262435       3.15662537       1.10613836      -0.23676144      -1.49511330
W        0.00814007       0.01147382       3.08311050       3.68247410       0.07437922      -2.12293735      -0.68460614       0.56233617       1.10554105
W        1.58486580       1.58387524       4.79792117       1.83810933       4.50120704       5.77949227       0.16537495       0.11231676       0.09701066
W       -0.01445587       3.14898298       0.02356768       2.41122016       5.11657072       1.77493653       0.15553275       0.48032363      -0.15957163
W        1.59978735       4.68206362       1.68561636       3.25388617       2.01486336       2.17389256       0.88865701       0.77095560      -0.94553331
W        0.11533822       3.31785464       3.15845121       5.11711117       2.82795286      -5.11360623      -1.97461567      -2.03735251       0.62316773
W        1.55493801       4.71879861       4.65205789      -0.58746109      -4.51877113       1.75169453       0.82080340       0.72964348       0.91681447
W        2.97687754      -0.03534065       0.03904986      -3.17635073      -5.33340447      -1.64954530       1.39751171       0.05295360      -0.35202716
W        4.60626219       1.52107517       1.50511358      -1.69140106      -2.46519380       4.48869354       1.02166104       0.25205468       0.23609787
W        3.09776315       0.03519342       3.23953339      -0.87421099      -2.44496090      -7.37295812       1.24796573      -0.07846338      -0.12481195
W        4.88830921       1.72550344       5.00153921       3.44799795      -1.21925653      -3.59222843      -1.08457126      -1.38266961      -1.54911933
W        3.09704145       3.26980367      -0.13043270      -3.54172084       2.54497939      -0.96919058       0.86936761      -0.51303934       0.74309903
W        4.90895795       4.70109729       1.63209483      -0.05697407       7.02790039      -1.56253229      -1.74237972       0.99215817      -0.98333701
W        3.35305811       3.12579955       3.07656760      -5.49720931      -2.00955508      -3.74343529      -0.43373072       0.26952310       1.20721529
W        4.87847498       4.91503868       4.68836282      -5.18639629      -1.79852212       1.32485877      -0.82823930      -0.42132642       1.00012060
16
Lattice="6.376 0.0 0.0 0.0 6.376 0.0 0.0 0.0 6.376" Properties=species:S:1:pos:R:3:momenta:R:3:forces:R:3 Temperature=521.0974118281682 Step=138500 energy=-201.99770682165098 free_energy=-201.99770682165098 stress="-0.025667636955217937 0.0004886820683262263 -0.0018103957565776105 0.0004886820683262263 -0.025953550367698384 0.0008073414000797403 -0.0018103957565776105 0.0008073414000797403 -0.031073668685598674" pbc="T T T"
W        0.27133463       0.06662862       0.15484161      -0.91743669      -1.09600517      -5.08214348      -2.13548570      -0.64453905      -1.77202953
W        1.69075623       1.63812121       1.57522684      -0.78028989      -1.68125755      -4.09034970      -0.49105425       0.45631437      -0.19877729
W        0.01108970       0.07515217       3.01854655      -4.56125365       0.11626929      -3.76730629      -0.93164293       0.06095998       1.95859604
W        1.59663094       1.58291777       4.66828890      -1.68629688       2.07333016      -3.14429678      -0.14549884       0.04829759       1.04460620
W        0.12337878       3.32499287       0.05429568      -1.15689610      -7.53845776       0.06008884      -1.40233675      -0.90365163      -0.27867341
W        1.55684665       4.89088257       1.76808214       4.39903831       3.57000006      -1.12365310       0.12786400      -1.48674611      -0.61238244
W       -0.08415810       3.14356601       3.18572147       1.81038039       0.64543433      -0.39468397      -0.16936311      -0.21939678       0.16963576
W        1.63188403       4.68056478       4.80842050       2.23379850      -3.07011850       5.31260787      -1.14403025       1.18529298      -1.21184136
W        3.17012479      -0.16982578      -0.02191323       0.36519782       0.47823697       0.37302820       0.44622139       1.11287085      -0.36545162
W        4.79226238       1.50620018       1.41007867      -2.28217583      -6.17330055       3.01642181      -0.25633939       1.10454167       0.53392729
W        3.12033920       0.04273951       3.07229180       2.23399941       1.63028882      -0.28798927       1.35252491       0.01181456       1.57936859
W        4.74780489       1.46601002       4.91803391       3.15357978       2.10890203       1.04006082       0.42681591       0.76249349      -0.63634063
W        2.99234825       3.34393528      -0.00568747      -1.14226321       4.85390197       1.61839692       2.08505310      -1.39077653       0.13945274
W        4.69692094       4.84322645       1.72946935      -0.02561321      -0.08584861       1.77084971       0.89242207      -0.71683412      -1.19252598
W        3.14764403       3.14978943       3.19199055      -1.69082451       0.67124064      -1.17341436       0.92923284      -0.24627682       0.21726524
W        4.79079267       4.67109901       4.72831271       0.04705576       3.49738387       5.87238279       0.41561699       0.86563555       0.62517041
16
Lattice="6.376 0.0 0.0 0.0 6.376 0.0 0.0 0.0 6.376" Properties=species:S:1:pos:R:3:momenta:R:3:forces:R:3 Temperature=675.68811443773 Step=143500 energy=-202.57241228055454 free_energy=-202.57241228055454 stress="-0.018875657897314456 -0.0004894834855953608 -0.00037627206675823954 -0.0004894834855953608 -0.020262758539909616 -0.001987625798802311 -0.00037627206675823954 -0.001987625798802311 -0.022370323014657783" pbc="T T T"
W       -0.01674464      -0.09046813       0.03782197      -4.60137253       4.57256972      -5.69243600       0.41493874       0.28123588      -0.79179720
W        1.61707887       1.38481293       1.67086981       0.80446389      -1.74194873       4.66623447       0.02041344       1.89852762      -0.77245908
W       -0.05253785       0.08438051       3.09649156      -5.02451425      -1.03363721       6.98498199       0.22859891      -0.47889860       1.38337053
W        1.49475044       1.71819555       4.87980114       0.65866436       1.07010249       5.86609791       0.95222021      -0.98674214      -0.75466926
W        0.10938701       3.27937277      -0.07552880      -3.89930448       1.59903191       0.32422319      -0.94680012      -0.64986750       0.78114353
W        1.61781516       4.66048652       1.66859799      -1.56634958       1.96263160      -1.13244367      -0.27390017       0.78393843       0.23592797
W        0.02483520       3.07423769       3.13194376       0.71271923      -1.16978738      -4.35648762      -0.52333283       0.41561045       0.23342882
W        1.63408313       4.78306301       4.60202077       1.02853624       0.69615120       4.21588287      -0.52727228       0.22738129       0.51992748
W        3.07389967      -0.09840027       0.06144991       6.30774130      -3.15380696      -4.88810874       0.39225955       0.56791755      -0.86837703
W        4.77967002       1.43668773       1.48291085       3.47154330       0.16001485      -2.03593598      -0.13168859       1.71298495       0.02786967
W        3.29182475       0.12149345       3.21366079       0.62460671       2.47067041       2.19370990      -0.60585462      -0.40860350       0.50680406
W        4.76961700       1.59844155       4.94115848       0.82429053       0.20753797       2.66560074      -0.11958198       0.32863011      -0.51386307
W        3.05636522       3.39239301      -0.01153373       1.26635765      -3.13307976      -2.59312397       1.05878875      -1.63361677       0.13476536
W        4.79196182       4.89247867       1.62801239      -3.22382360       4.07448974      -1.90001232       0.04772474      -1.22888898      -0.29417138
W        3.31234692       3.25049084       3.15309296       0.55540859      -4.06424990      -6.77873290      -0.43307904      -1.03523889       0.30879611
W        4.75164729       4.76833429       4.77523013       2.06103263      -2.51668996       2.46055014       0.44656529       0.20563010      -0.13669652
16
Lattice="6.376 0.0 0.0 0.0 6.376 0.0 0.0 0.0 6.376" Properties=species:S:1:pos:R:3:momenta:R:3:forces:R:3 Temperature=654.0967988934417 Step=148500 energy=-202.46954711164744 free_energy=-202.46954711164744 stress="-0.019591056259470982 0.00023219251722800656 0.001149959018181433 0.00023219251722800656 -0.01451049489365865 -3.6852503877990275e-05 0.001149959018181433 -3.6852503877990275e-05 -0.019337788397584245" pbc="T T T"
W       -0.01438876      -0.07518746       0.00136374      -4.32226879       2.78815379     -12.60882481       0.85576574       0.10114145      -0.20132794
W        1.58437142       1.65183305       1.53897420      -0.84303855      -1.81602585      -1.48604212       0.07687131      -0.49035422       0.59640249
W       -0.12482614       0.26423378       3.11708006       1.08495462      -0.46265216       0.36121203       0.75499246      -2.01997023       0.53709905
W        1.62695713       1.59160679       4.74283555       0.67223574      -1.62685027      -2.34411188      -0.22766934      -0.07768862       0.23054566
W        0.13201077       3.25680190       0.14261862      -1.73868682      -2.81333658      -1.86081414      -0.60578076      -0.29010352      -0.60994415
W        1.59612388       4.92445623       1.83447399       3.65096140       0.37353778      -1.28714136       0.01513621      -0.55165388      -0.95990373
W       -0.06033594       3.22388439       3.32464621      -1.38152411      -0.54625515      -2.24891010       0.28593645      -0.17984649      -1.35992210
W        1.58951589       4.74933704       4.79782804      -4.74967599      -3.21808133       5.82343329      -0.11120214       0.50973549      -0.67260023
W        3.25176418      -0.08575015      -0.09320452       0.71643101       5.84026612      -2.30010080      -1.25324778       0.02220026       0.29704688
W        4.69383842       1.48295177       1.36642594       2.20177315       1.92606337       2.93040668       0.71897608       1.45383279       1.18094403
W        3.33329968       0.09625088       3.16434408       1.23131812       5.42282350       4.38686941      -0.88573433      -0.74465931       0.19256403
W        4.87080794       1.47502572       4.86497286       1.19486153       3.81597832       2.48376800      -0.57459782       1.20151368      -0.19533667
W        3.09818843       3.17850855       0.01819088       1.14331121      -2.47700161       0.83546911       0.17653945       0.21185771      -0.08980414
W        4.74890919       4.80974002       1.45721827       0.43639356      -1.13852537       3.88254963       0.16997894      -0.59684693       1.45900236
W        3.18458100       3.12665996       3.17992557       0.37072996      -2.91615033      -0.86632502       0.14032244       0.28598750      -0.04414776
W        4.74518293       4.58564763       4.79830647       0.33222396      -3.15194421       4.29856207       0.46371309       1.16485431      -0.36061779
16
Lattice="6.376 0.0 0.0 0.0 6.376 0.0 0.0 0.0 6.376" Properties=species:S:1:pos:R:3:momenta:R:3:forces:R:3 Temperature=511.0360521885698 Step=153500 energy=-202.36751088666006 free_energy=-202.36751088666006 stress="-0.0175460073804914 -0.0007743383487919838 -0.0012357118234133937 -0.0007743383487919838 -0.017378526288312608 0.0016314598073786312 -0.0012357118234133937 0.0016314598073786312 -0.01964153731363252" pbc="T T T"
W        0.02272435       0.00225239      -0.01810373      -0.00910987       1.70987794      -2.94150548       0.07637187      -0.32532702       0.09347472
W        1.70253846       1.33121572       1.57824864      -0.66972737      -0.87934324       3.19155838      -0.79082295       1.25188672       0.18015470
W       -0.11609589       0.03448077       3.30566420      -1.12404680      -1.66373505       5.28645743       0.75551252      -0.59242386      -1.02933585
W        1.40280184       1.62296975       4.75952823       3.02091455       1.70493680       2.68220599       1.59158510      -0.42350637       0.24259609
W       -0.00149878       3.25200998      -0.07236499      -0.37870663      -2.46150116      -1.80461216       0.29572394      -0.28657041       1.00638395
W        1.61334993       4.67291298       1.55969514       0.34285408      -0.86261206      -0.68705097       0.09018935       1.31264046       0.67174950
W        0.05490643       3.05015170       3.07789295      -1.88467370       5.58414207       2.18829067      -0.58466416       1.02112940      -0.04214803
W        1.59119836       4.62658165       4.54242668       1.61419796       1.61704065       1.77513143      -0.04302903       1.41066755       1.41210176
W        3.28805959       0.05988647      -0.03966964      -0.19519997       4.10673912      -6.94950333      -1.13566374      -0.58320978       0.17611031
W        4.79712818       1.59634894       1.57622728       0.03529514       1.55373226       6.36324494      -0.02167816      -0.00169672      -0.16535004
W        3.30264965       0.14772956       3.38840469      -4.85515746      -2.44551114      -0.15667683      -0.71386572      -1.20384409      -1.25013555
W        4.76628367       1.78220226       4.82306963       2.77445998       1.92325769       0.59640750       0.00991027      -0.61155880       0.45485745
W        3.01117951       3.26653148       0.08147477       0.99178488      -0.69228644      -1.65458992       1.07922173      -0.55123267      -0.53239766
W        4.81336499       4.82839998       1.58508245      -2.66826438      -5.99013856      -1.92510148      -0.33241852      -0.10523633       0.36590109
W        3.25145816       3.13500088       3.21501220       0.04803213       1.79642036      -3.53485315      -0.44108146       0.41123238      -0.63229877
W        4.75595157       4.84732560       4.89341148       2.95734747      -5.00101923      -2.42940302       0.16470897      -0.72295046      -0.95166366
16
Lattice="6.376 0.0 0.0 0.0 6.376 0.0 0.0 0.0 6.376" Properties=species:S:1:pos:R:3:momenta:R:3:forces:R:3 Temperature=712.9878653069321 Step=158500 energy=-202.70382794982612 free_energy=-202.70382794982612 stress="-0.014635191293875725 0.00047768940619433744 0.0016161768730362826 0.00047768940619433744 -0.015921876679941174 -0.0009070894041551049 0.0016161768730362826 -0.0009070894041551049 -0.017350670169538354" pbc="T T T"
W        0.07638675      -0.01721841      -0.03575290       1.45616432       3.89410783      -0.71442384      -0.53452224       0.16546598       0.60267092
W        1.59698334       1.67135506       1.63357132       2.67736265      -2.97177875       0.03667606      -0.39761118      -0.71970967      -0.11904177
W       -0.16041955       0.03318826       3.32507339      -0.68775310      -3.70267067      -2.46486431       1.49306569      -0.92269385      -1.65426308
W        1.69569421       1.63987085       4.73621823      -0.49826795      -6.50886454       1.23573173      -0.78499853      -0.38081245       0.15972986
W        0.10803916       3.27212389       0.11400615      -4.81636299       4.43103436      -2.79345293      -0.47931281      -0.75205293      -0.27274002
W        1.52083873       4.95804130       1.61598974      -1.70630337       1.72840890      -3.92214913       0.35575181      -0.74896558      -0.01283734
W       -0.05833605       3.21962791       3.25807099      -0.27871296       5.23312627      -5.40988847       0.44030300       0.12187305      -1.16720294
W        1.68605417       4.71263207       4.76193829       4.96380897      -1.01401564       0.09538164      -0.92747106       0.63423216       0.19372211
W        3.15224330      -0.00034035      -0.12756912      -0.14361757      -0.84332961       0.66904341       0.38016610      -0.03528768       0.82639056
W        4.63629780       1.58220393       1.55372837       3.50308573       2.13464596       3.54456474       1.28236132      -0.17704583       0.05037020
W        3.25894373      -0.01906083       3.27644882      -3.03100648       1.02127991      -1.93654204      -0.56862463       0.17824822      -0.81403489
W        4.97797845       1.53605120       4.71153982      -2.87782417       0.14614790      -6.37489219      -1.52531940       0.95212798       1.32916988
W        3.22330671       3.08577415      -0.07174729      -1.92081417      -2.39433539       8.01814146      -0.44868379       0.60011607       0.83002132
W        4.62331315       4.74769986       1.54782214      -0.74270095      -4.25932113       4.68490513       0.95508312       0.55517521       0.06925571
W        3.14658002       3.23571131       3.14171878       4.30526019       5.23481571      -0.25608800       0.35929989      -0.52697233      -0.17445904
W        4.77209610       4.59833989       4.81494327      -0.20231815      -2.12925110       5.58785675       0.40051272       1.05630164       0.15324850
16
Lattice="6.376 0.0 0.0 0.0 6.376 0.0 0.0 0.0 6.376" Properties=species:S:1:pos:R:3:momenta:R:3:forces:R:3 Temperature=533.0474060592185 Step=163500 energy=-202.33358403241195 free_energy=-202.33358403241195 stress="-0.021635115069523782 -0.0003136675219705064 0.0006195819318015013 -0.0003136675219705064 -0.02324323781654204 0.0008415544394628308 0.0006195819318015013 0.0008415544394628308 -0.0251156634027163" pbc="T T T"
W       -0.02302671      -0.13387497      -0.10300056      -0.17487714       2.66177330       0.36140487      -0.10255306       1.51298496       0.72252794
W        1.64382779       1.45134170       1.55155632      -0.60760923      -3.56356172       1.34152347      -0.63029410       0.81261376       0.82545183
W        0.01735888      -0.11194133       3.14734197       0.43872922      -0.95085161      -2.56947914       0.17460633       1.00137527       0.25699912
W        1.49870556       1.61950432       4.70191568       1.88208652      -4.17744588       1.65903777       0.23149943      -0.06110169       0.46138184
W       -0.04229040       3.14301070       0.12008273      -1.51555177       0.72306936       3.82558237       0.52976310      -0.07995129      -1.05885025
W        1.76449845       4.67526475       1.60211011      -0.66349651      -1.60816916       0.52956534      -1.04117427       1.08269200      -0.06871647
W       -0.03077292       3.26870728       3.01573886      -1.68219944       0.82666071      -0.74598690       0.87535831      -0.93854236       1.23162247
W        1.52068645       4.82471044       4.84056093      -1.40598877       3.37707567       1.83575342       0.38238797      -0.58783148      -0.50392461
W        3.06071251       0.14578076       0.07862470      -0.29194594       6.02481242       1.89691300       1.36275480      -0.92224226      -1.19422890
W        4.73134840       1.65287035       1.73228713       1.46124642       1.74037202       3.38708451       0.57608924      -1.01916785      -1.29862080
W        3.35116041      -0.09805439       3.33925637      -3.39757168       1.42644326      -0.79669102      -1.60933807       1.40090190      -0.90822527
W        4.73709574       1.79220779       4.79292908       5.34268817      -0.31027906      -1.96519906       0.60929826      -1.52636083       0.22662967
W        3.16463101       3.29496798       0.00347196       3.89893707      -1.46631601      -2.52988558      -0.15659927      -1.11108157      -0.09646026
W        4.88078598       4.78992720       1.55925334       3.99956684      -2.73440943      -3.39985639      -0.95423295       0.49423513      -0.30195228
W        3.27376003       3.18807359       3.19256111      -6.31643850       0.64900556      -8.34189278      -1.25753737      -0.21648949       0.04916153
W        4.70751883       4.75350393       4.68131025      -0.96757525      -2.61817942       5.51212612       1.00997166       0.15796577       1.65720445
16
Lattice="6.376 0.0 0.0 0.0 6.376 0.0 0.0 0.0 6.376" Properties=species:S:1:pos:R:3:momenta:R:3:forces:R:3 Temperature=497.99629112939465 Step=168500 energy=-202.44535374631133 free_energy=-202.44535374631133 stress="-0.019779114531558718 -0.0006512920527214541 -0.0010523972349166483 -0.0006512920527214541 -0.019433102989630906 0.0006537191971204513 -0.0010523972349166483 0.0006537191971204513 -0.02286392812039202" pbc="T T T"
W        0.05446714       0.07123410       0.10699834      -3.93455696       0.52076576      -4.35518650      -1.10532602      -0.12930707      -0.81509981