16
Lattice="6.376 0.0 0.0 0.0 6.376 0.0 0.0 0.0 6.376" Properties=species:S:1:pos:R:3:momenta:R:3:forces:R:3 Temperature=488.35676301253574 Step=146000 energy=-202.58796395345533 free_energy=-202.58796395345533 stress="-0.01460358806989291 0.001758751289358994 -0.0001636040365408574 0.001758751289358994 -0.019858547999001195 -0.00034304765543879647 -0.0001636040365408574 -0.00034304765543879647 -0.021731212735322445" pbc="T T T"
W       -0.00880827      -0.03077666       0.06755941      -4.03837612       4.79438349       2.40264382      -0.25066024       0.00593041      -0.39307337
W        1.58870563       1.71772208       1.66074755       4.18674876      -2.63507663       3.66823722       0.35867124      -1.09330129      -0.40440573
W        0.03309406       0.03736082       3.16878970      -3.09832398      -2.41778608      -0.99713596      -0.77731948      -1.24696823      -0.24433434
W        1.44979283       1.63599221       4.57750410       0.14178580       2.05577475      -3.46273882       1.12113077      -1.15626384       1.72403170
W        0.10177751       3.00593689      -0.01455615      -3.50114083       0.85437911      -0.85472423      -1.17900183       1.49088661      -0.18905485
W        1.70154725       4.79605161       1.47591147       1.36606926       1.87028344       0.76757950      -0.50045152       0.02970865       0.60571036
W        0.18241548       3.24745714       3.16212511       8.29874924      -1.51308206       3.19875073      -2.34811886       0.98661995       0.12915787
W        1.55026271       4.74086838       4.80174359       0.47976515      -3.03547388      -4.22598647       0.52606882       0.80378653       0.19611242
W        3.10347528       0.13458456       0.06420283      -1.62785238       2.27253544       2.66124555       0.56741313      -0.80096206      -0.63069723
W        4.87639043       1.69760854       1.63101870       1.03802512      -0.08243417      -0.69282764      -0.70790200      -0.78472901       0.09817685
W        3.15829174       0.05885234       3.14782414       0.75463106      -1.43359710      -1.75470908       0.47217691      -0.84268880       0.36027218
W        4.70191417       1.46775653       4.72674284      -1.60127491      -1.92738165      -3.86278869       0.81517449       0.67331587       0.26981711
W        3.19134913       3.02572378       0.01449889      -3.79752230       1.56418978       0.19012425       0.27358263       0.96486922      -0.51910824
W        4.66991889       4.73292950       1.54203033       3.75344679       0.62191535       2.34361568       0.91649286       0.38274241       0.25364364
W        3.17927322       3.20711130       3.28924687       0.30344433      -3.86262124       3.18628894       0.80978462       0.58270150      -0.46692223
W        4.77659995       4.78082091       4.94061054      -2.65817500       2.87399148      -2.56757481      -0.09704153       0.00435207      -0.78932615
16
Lattice="6.376 0.0 0.0 0.0 6.376 0.0 0.0 0.0 6.376" Properties=species:S:1:pos:R:3:momenta:R:3:forces:R:3 Temperature=568.2045532500198 Step=135000 energy=-202.72166858864895 free_energy=-202.72166858864895 stress="-0.015165178454438075 0.0011600023173348078 3.160863662767401e-05 0.0011600023173348078 -0.018390993895879188 -0.0002799145661715305 3.160863662767401e-05 -0.0002799145661715305 -0.010403864514170063" pbc="T T T"
W        0.01029545       0.12987337       0.01895926      -4.09141857      -2.37740695      -4.01293710      -0.63688973      -0.41154553       0.09152062
W        1.71004827       1.75586043       1.60708088       5.39254102       0.35834728       6.65921874      -0.57348306      -1.24307491       0.08301212
W       -0.04832580       0.00305370       3.07115259      -1.71010543       0.25793205      -5.63610441       0.02725408       0.03675675       0.57748777
W        1.60801001       1.37652042       4.68046544       2.40350942      -2.26749433       0.48272145       0.36644816       0.87664239       0.61953371
W        0.02315235       3.04194315      -0.01414315      -6.96036477       1.53914043      -0.03792566      -0.04010999       0.49141504      -0.05149084
W        1.49362799       4.80405430       1.52793425      -3.98492835      -1.37902696       1.10339298       0.55513598       0.08401031       0.43541476
W        0.15488199       3.11493301       3.42012776       1.19261311       1.01016944       2.98781347      -1.13322003       0.36558564      -1.55739940
W        1.47981026       4.85057294       4.82546693       2.41591501      -0.60269427      -4.01111022       0.55960348      -0.00947403      -0.24974744
W        3.16575779       0.01962892       0.05003164       0.80715813       2.24171666       0.02574795       0.50915362      -0.24010366      -0.03074958
W        4.69026125       1.77870702       1.71664697       1.94868473       5.45266715       0.53686513       0.60417752      -0.80011373      -0.69657333
W        3.26334934      -0.08411450       3.14476479       1.81894552      -2.06204985       4.73606258      -0.25807439      -0.06603666      -0.26878835
W        4.63084162       1.57514909       4.78689898       2.27376046      -0.03623292       3.41482009       0.67259827      -0.38152607      -0.06193892
W        3.13831127       3.27773521      -0.07530124      -3.98322870       0.16631734      -2.18201067       0.08881220      -0.44757280       0.38382428
W        4.97873737       4.74031405       1.47314056       6.05026558      -1.99210858       0.88625371      -1.04056033      -0.05634916       0.83457898
W        3.15804120       3.22946411       3.22505912      -2.26318710      -0.88665289      -1.45471119       0.17194434       0.49270198      -0.10913191
W        4.79919964       4.64230476       4.79771521      -1.31016006       0.57737639      -3.49809686       0.12720990       1.30868443       0.00044754
16
Lattice="6.376 0.0 0.0 0.0 6.376 0.0 0.0 0.0 6.376" Properties=species:S:1:pos:R:3:momenta:R:3:forces:R:3 Temperature=747.0873039204514 Step=45000 energy=-202.65232298918224 free_energy=-202.65232298918224 stress="-0.016451519566685002 0.0010116301058618253 0.0016908978818554294 0.0010116301058618253 -0.01920955606336067 0.001516713352534905 0.0016908978818554294 0.001516713352534905 -0.010327772668467638" pbc="T T T"
W       -0.00876546      -0.01597220      -0.08937157       0.00914180       5.55150277      -0.45372455       0.63876082       0.52652736       0.67560937
W        1.70931585       1.65461988       1.63975884      -0.95723019      -8.64816926      -3.53723271      -0.89714450      -0.65712648      -0.41541345
W       -0.06524954       0.02368351       3.26648758       1.71775067      -6.53900723       6.11794907       0.95022982       0.20688799      -0.83070851
W        1.72896937       1.73812107       4.83297017       1.82833590       1.69753014      -3.23995182      -0.49499994      -1.28176260      -0.17007633
W       -0.06102029       3.16409965       0.02204846       0.64603146      -0.76177083      -3.26007295       0.63903886      -0.10528210      -0.02667309
W        1.40469616       4.65240897       1.59021976      -2.33861043       1.12904321      -4.88871141       0.96491920       0.88781747      -0.02509026
W       -0.06312085       3.13311640       3.32199781       2.30395176       4.62983524      -3.39835374       0.34721514       0.20376638      -0.75677818
W        1.57421166       4.72134691       4.74952220      -0.93842491       1.62891330       4.41622864       0.19171483       0.53287920       0.24588649
W        3.16124873      -0.10794061      -0.16848350       2.38506030      -0.42388771       2.26430028      -0.11211257       0.78534356       1.19078160
W        4.89133363       1.60353401       1.62066497       0.39431719      -4.21534594      -0.16356443      -0.89703968      -0.56251111      -0.10364834
W        3.09288995      -0.05771978       2.91645008      -5.32475809      -0.80482810       4.24252927       0.35510790       0.37470842       1.71814076
W        4.80537416       1.61566397       4.82143603      -1.93560458       1.38933797       0.45189468      -0.70161540      -0.46158123      -0.29622158
W        3.31055899       3.23554930       0.16805496       2.68603537       3.27063616       1.12645838      -0.85704805      -0.18676215      -1.06669678
W        4.78176590       4.79016491       1.52775694      -7.37037884       0.94441976      -3.94085793       0.18380348       0.33844151       0.79140882
W        3.13398428       3.21680119       3.27623478       4.56698634      -2.75397139      -0.64730172       0.75333707      -0.00636093      -0.75679200
W        4.85980747       4.88852279       4.76025244       2.32739626       3.90576192       4.91041092      -1.06416697      -0.59498528      -0.17372852
16
Lattice="6.376 0.0 0.0 0.0 6.376 0.0 0.0 0.0 6.376" Properties=species:S:1:pos:R:3:momenta:R:3:forces:R:3 Temperature=709.5107023194363 Step=240000 energy=-203.36774344492525 free_energy=-203.36774344492525 stress="-0.006985324672571133 -0.00031760370408575884 -0.0003276227181259757 -0.00031760370408575884 -0.005313357088902613 6.548802548516273e-05 -0.0003276227181259757 6.548802548516273e-05 -0.008061295795045206" pbc="T T T"
W        0.01884632      -0.10193893       0.04328366      -4.70062107      -0.56870304       0.76232899       0.07630077       0.63926099      -0.12324236
W        1.57846292       1.65668684       1.54985744       2.59165350      -2.41804710       2.55335371      -0.00369036      -0.32101248       0.44229326
W       -0.11922283       0.03341917       3.17255745      -2.40432441      -9.61019448      -2.37884571       0.70361893      -0.31756117      -0.03705541
W        1.54845678       1.54460944       4.67974305      -5.76431127       2.86216038      -0.02490838       0.17630214       0.16088276       0.52950167
W        0.07750716       3.19254414       0.01053614       2.45947988      -2.42343191       4.54277345      -0.06297443       0.08637909      -0.35317400
W        1.59056921       4.85189238       1.66742081       1.17979747      -0.81355372      -5.93353458       0.24690535      -0.47323055      -0.12586995
W       -0.08614224       3.20225393       3.17601862       3.10618409      -1.54616161       0.57409532       0.55869596      -0.11253739       0.24342825
W        1.68459004       4.86685378       4.76929780       4.01536827      -0.93039203       1.11751724      -0.66267632      -0.34957673      -0.24922199
W        3.14920278       0.07921295       0.08729093      -0.33363198       2.01921127       2.23399352       0.23597753      -0.70852949      -0.56832165
W        4.78009683       1.61016668       1.49100700      -3.22365098      -0.58339870      -1.86407609      -0.00475133       0.18409098       0.57983182
W        3.35492016       0.00180184       3.18973997       3.14191267       0.15607693       2.10228803      -1.06936854       0.13593005      -0.07275404
W        4.77822172       1.53577761       4.87404064      -3.95311824       2.25282316       1.01570134       0.16032982       0.37350279      -0.50940183
W        3.18946234       3.22314623      -0.11939794      -3.12796575      -5.29587814      -2.96420094      -0.49938599      -0.14184991       0.81183107
W        4.78965715       4.70236830       1.58288079      -0.90888210       3.52958159      -1.44588491      -0.29491882       0.23012788       0.10730002
W        3.10872881       3.11267420       3.24914004       3.26629362       6.47244712       1.91860540       0.59719063       0.45638392      -0.46325582
W        4.81264286       4.74453145       4.83258357       4.65581631       6.89746030      -2.20920637      -0.15755534       0.15773926      -0.21188904
16
Lattice="6.376 0.0 0.0 0.0 6.376 0.0 0.0 0.0 6.376" Properties=species:S:1:pos:R:3:momenta:R:3:forces:R:3 Temperature=702.5997235110771 Step=34500 energy=-203.0774662429477 free_energy=-203.0774662429477 stress="-0.01179870467473842 0.00017948042780125832 -0.0009308711454674608 0.00017948042780125832 -0.00924686377776857 0.0008923009421818545 -0.0009308711454674608 0.0008923009421818545 -0.012946171715106406" pbc="T T T"
W        0.04223951       0.07876274      -0.06265837      -0.42044726       3.26349749       5.15915167      -0.63087904      -0.08232983       0.95659398
W        1.58138087       1.66528203       1.64905135       0.10746869       1.16572651       0.80290047       0.08182433      -0.50767324       0.00230065
W        0.04987797      -0.09675775       3.31510101      -3.45452589      -3.24430384      -2.21621950      -0.47579882       0.91009962      -1.38245077
W        1.65798082       1.72446321       4.91015793      -2.84143689      -2.02472640      -0.51720052      -0.37703901      -0.71528907      -1.28347493
W       -0.00173756       3.18870653      -0.01423531       0.79605915      10.24616998      -5.06353429      -0.34422256      -0.28082018       0.06870540
W        1.58712732       4.75197583       1.45700486      -2.25317548      -7.13885304      -0.36581892      -0.18154656       0.12666659       0.78226446
W        0.03671562       3.18062875       3.23613772       1.01623765       2.25726371       2.19013786      -0.40212353      -0.01566715      -0.29790506
W        1.52434849       4.94312895       4.79685111      -4.97601090       3.19294361       4.30075884       0.83809229      -1.39653544       0.14349601
W        3.18244322       0.03225495       0.03192921       0.57416245      -5.99694554       1.59611779       0.22093202       0.04429429       0.13128933
W        4.77134460       1.46182385       1.72561553       1.76289242       2.77569421      -0.64934739       0.25377856       0.68144756      -0.65138685
W        3.14331900      -0.12751606       3.16411165      -2.97539987      -0.37785671      -4.13832233       0.17851580       0.83284930      -0.17842959
W        4.71954883       1.55282117       4.74817790       4.13666416      -1.41377043      -4.71078438       0.38634417       0.23744956      -0.01497861
W        3.24140042       3.19045270      -0.10289151       4.22446489      -0.51664569       4.43935516      -0.07404012      -0.06908228       0.97720762
W        4.81177520       4.64331371       1.49463711      -0.67360327      -1.82817325       1.53877026       0.09473961       0.88151493       0.76733277
W        3.18496802       3.21303019       3.10622171       0.16580049      -2.23057057       0.72292027       0.06033877      -0.10352169       0.34112176
W        4.72326768       4.85362917       4.80078802       4.81084966       1.87054996      -3.08888500       0.37108406      -0.54340296      -0.36168617
16
Lattice="6.376 0.0 0.0 0.0 6.376 0.0 0.0 0.0 6.376" Properties=species:S:1:pos:R:3:momenta:R:3:forces:R:3 Temperature=337.8518194151891 Step=45000 energy=-203.1218072565681 free_energy=-203.1218072565681 stress="-0.01115290853694723 -8.731872176601819e-05 -1.1873440311212832e-05 -8.731872176601819e-05 -0.010296974008681022 0.0005251656252164019 -1.1873440311212832e-05 0.0005251656252164019 -0.01073625169558003" pbc="T T T"
W       -0.03487511       0.06052712      -0.04196783       1.05156673      -0.07357239       2.19182419       0.26131777      -0.47598419       0.56439305
W        1.63883566       1.65327080       1.65184082      -2.23761417       1.55531866      -0.71668329      -0.27724606      -0.76640056      -0.80673947
W       -0.18836677      -0.02547075       3.20067388       0.21712766      -2.75112833      -4.12153652       1.09320625       0.40506873      -0.41260671
W        1.53478445       1.49773355       4.69857115       0.64842801      -0.14904438      -0.58722862       0.37682650       0.40704643       1.06284337
W        0.01794044       3.26654733      -0.06426182      -2.79873006      -3.50521261       1.73194878       0.31497788      -0.48802232       0.76944230
W        1.66363120       4.88394438       1.64498257      -0.15200779       0.10536315      -2.36537395      -0.47050723      -0.28130031      -0.38754244
W        0.15368385       3.11518015       3.18531280       0.25391928      -0.65531717       0.44086921      -1.32300483       0.44964050      -0.46438551
W        1.59760545       4.76628372       4.66925501       2.40706444       2.40496365       1.18159391      -0.26018308       0.28218221       0.78270542
W        3.25147513      -0.15047673      -0.02571549      -0.72501853       0.95518743      -1.42673270      -0.52156056       1.19889745       0.42585291
W        4.76736017       1.66399365       1.59197358      -2.31439229       0.22935242      -2.49535887       0.02587134      -0.21105221      -0.20118496
W        3.17591343       0.04745551       3.31271335      -3.26480625       2.71635246       2.76512829       0.50486110      -0.40281769      -1.10309269
W        4.78227199       1.59929198       4.86670239       2.28708394      -3.91627536      -5.53198110      -0.16392355       0.11337423      -0.22146797
W        3.08559327       3.23381753      -0.01056881       3.44194662       0.31800191       0.66777067       0.49761091      -0.36913507       0.26520358
W        4.84814750       4.81542874       1.56530393      -1.38313715       3.85595917       5.84934925      -0.47094689      -0.45610072       0.23797049
W        3.16846055       3.15332135       3.24446488       1.09016794      -0.60777001       3.75811918       0.37586247       0.18773562      -0.62268408
W        4.79353878       4.67515164       4.76671959       1.47840163      -0.48217859      -1.34170843       0.03683798       0.40686788       0.11129271
16
Lattice="6.376 0.0 0.0 0.0 6.376 0.0 0.0 0.0 6.376" Properties=species:S:1:pos:R:3:momenta:R:3:forces:R:3 Temperature=493.4230249652558 Step=205000 energy=-202.95465871670314 free_energy=-202.95465871670314 stress="-0.014669505911277273 0.000774717345322837 0.000887562125325127 0.000774717345322837 -0.01805899730085314 -0.0010492938376101138 0.000887562125325127 -0.0010492938376101138 -0.015070774941926525" pbc="T T T"
W       -0.00127739       0.06140449       0.03089249       2.18044716      -3.60679652      -0.87666676       0.15606930      -0.42419452       0.16066347
W        1.64200065       1.74101934       1.56266967      -1.72771923      -3.94199352      -2.17864504      -0.14488759      -0.89753500      -0.60893668
W        0.00846442       0.18892699       3.25014929       0.49152074       4.41607240       2.66754483       0.21015267      -1.58597501      -0.82441494
W        1.70606116       1.65016912       4.76895788       2.55201629      -0.75523518      -4.21307731      -0.70298012      -0.36329135       0.79188209
W        0.00864880       3.25857912      -0.04010102       0.42614972       0.94833242       0.17318379      -0.20212764      -0.37896165       0.41933922
W        1.65072930       4.84217340       1.69176736      -0.72006605      -0.19598413       4.45765502      -0.92764243      -0.51660597      -1.02467290
W       -0.01343312       3.04598128       3.16263032      -1.35696134      -1.22520470      -2.35357798      -0.17937986       1.08583639       0.04083160
W        1.47973633       4.77665170       4.73915908       2.99668343       3.38554006       0.05728436       0.50425705       0.04313021       0.50806560
W        3.16423964      -0.10319904       0.03363256      -2.75387190       5.56139621       1.50845425       0.23094902       0.43341342      -0.24105802
W        4.75595463       1.50082305       1.62699085       0.80353165       2.77652362      -2.58233591      -0.05439360       0.65209887      -0.81399866
W        3.03066711      -0.04895957       3.18104907       0.60166210      -4.07965849       4.88896777       1.22600519       0.19055100       0.24658477
W        4.87080899       1.46831922       4.71848497      -0.85412788      -1.52862114       1.44982728      -1.20451973       0.85011968       1.11501033
W        3.27978194       3.27495795      -0.12199988       1.28834535       3.33165367      -2.36230699      -0.27804448      -0.40316169       0.98966788
W        4.81453975       4.77036005       1.67768683       0.90956204       0.40387109      -2.56810672      -0.08941924       0.06073317      -0.33737506
W        3.09606144       3.09436096       3.16556783       3.12391841      -5.12114083       0.05225061       1.17186756       0.84654320       0.08952237
W        4.76301636       4.73443190       4.80846268      -7.96109050      -0.36875494       1.87954882       0.28409391       0.40729926      -0.51111106
16
Lattice="6.376 0.0 0.0 0.0 6.376 0.0 0.0 0.0 6.376" Properties=species:S:1:pos:R:3:momenta:R:3:forces:R:3 Temperature=644.9576925908169 Step=105000 energy=-202.71369178569424 free_energy=-202.71369178569424 stress="-0.011432302541103754 -0.0005657600950367384 0.00014429847314977097 -0.0005657600950367384 -0.01787072075749851 0.0002937417823038257 0.00014429847314977097 0.0002937417823038257 -0.01675950801461345" pbc="T T T"
W       -0.09837816       0.02529439      -0.09240152       2.12998842       3.98131541      -4.64701286       1.01980607      -0.11021131       0.74544209
W        1.44505357       1.62989746       1.61632122       0.84346088       3.66310765      -3.31177004       1.10915992      -0.90024114       0.13094195
W        0.06130605      -0.10150470       3.24534671      -3.76489377       2.18292644       2.80320584      -0.48722143       0.58298042      -0.39547542
W        1.69479077       1.59915374       4.70338588       7.56220499      -4.67435238       0.59307555      -0.66061849       0.19077651       0.22763999
W        0.03975233       3.07310057       0.13264229       1.09761848      -5.14454317       2.22157104      -0.40788422       0.64488587      -1.03794963
W        1.62728118       4.68634413       1.51328732      -0.46639398      -3.04502094      -2.28151084      -0.10693712       1.13838103       0.47255285
W       -0.10543689       3.16910844       3.31215018      -5.08259397       0.19962324      -1.01532556       1.08998312       0.38673664      -0.94286778
W        1.57244649       4.83322552       4.81484300      -1.68323514      -2.70941337      -2.92527365       0.54817893      -0.47317435      -0.09890014
W        3.17988605       0.10787060      -0.10020679      -1.33486327       2.92054761       2.92927303      -0.03861050      -0.87074032       0.72767240
W        4.64084423       1.50615482       1.59966390       1.20687772      -6.09870711      -1.21888583       0.95722623       0.54226391       0.29496333
W        3.21103137       0.07783580       3.13498768      -0.33045770      -1.46728081       6.75142214      -0.04233536      -1.01532947       0.16948470
W        4.85929342       1.71763894       4.75148710       1.01449364       4.89697653       0.02591249      -1.10132232      -1.10011519       0.02095249
W        3.15508864       3.11220486      -0.00569848       1.56772911       2.30481655       1.22039326       0.30231986       0.72668622       0.18365646
W        5.00206013       4.74657189       1.61529609      -1.15529406      -5.14921262      -0.01231221      -1.89138168       0.36482571      -0.27032671
W        3.14019712       3.30097483       3.10322546      -0.19010118       4.32296951       2.54130171       0.34521975      -0.27339510       0.51348911
W        4.83078373       4.77212870       4.91166992      -1.41454020       3.81624746      -3.67406407      -0.63558278       0.16567057      -0.74127567
16
Lattice="6.376 0.0 0.0 0.0 6.376 0.0 0.0 0.0 6.376" Properties=species:S:1:pos:R:3:momenta:R:3:forces:R:3 Temperature=708.8025740431167 Step=9500 energy=-202.8407321671921 free_energy=-202.8407321671921 stress="-0.011831637000774846 0.00039851774524993363 -0.00017116467393751784 0.00039851774524993363 -0.015925174592024614 -0.0006697648771607862 -0.00017116467393751784 -0.0006697648771607862 -0.016345942598407045" pbc="T T T"
W        0.07024317      -0.07675777      -0.06965093       7.43074176       3.76085326      -1.55190279      -0.38955165       0.56657217       0.01806482
W        1.54247142       1.60977171       1.63542506      -1.52360800      -1.34668765      -2.24455468       0.07393036      -0.50233466      -0.00577978
W       -0.00354702      -0.14244766       3.18563005       0.85026412      -6.74089498      -2.07347959       0.15463611       0.96433797       0.39221528
W        1.68234284       1.60128607       4.74905680       0.87214166       4.38706765       3.43096769      -0.79653443       0.16134980       0.02711162
W       -0.01006278       3.15377059      -0.04764311      -1.26029969      -3.40492862       7.43641137      -0.24979925      -0.01798340       0.45542183
W        1.60428796       4.75502624       1.64366220      -2.73758752       1.38703942       3.08622199      -0.18059072       1.08585513      -0.62482359
W       -0.03261809       3.34560105       3.09280425       1.33453001       1.35586650      -4.10820553      -0.21714145      -1.35454254       0.50499334
W        1.64191604       4.68045448       4.73268768      -3.38227737       0.33958500      -3.99041061      -0.29230879       0.54914855       0.67229299
W        3.14750026       0.12426853      -0.06344889       1.11743911       2.15961373       6.25916171       0.32484645      -0.44853104       0.49616904
W        4.81235516       1.50745093       1.67365524       5.54711943      -2.37243077       4.72531322      -0.03735290       0.65228497      -0.85169358
W        3.26810249       0.02087607       3.28760973      -0.25699922      -0.56223152      -2.43683812      -0.43408728       0.08869957      -0.59787717
W        4.89543618       1.55836698       4.72560188      -0.64593381      -3.54865493      -3.84701992      -0.66944199       0.46291006       0.68242316
W        2.99954625       3.24819028       0.20610250      -0.80914700      -0.07495133      -5.07364517       1.76822271      -1.06009201      -1.42102334
W        4.77983549       4.95599496       1.54133685      -1.63884202      -0.87762147      -1.22238763      -0.24533734      -0.98586778      -0.18271124
W        3.16267147       3.26257383       3.15979187      -4.01664786       7.05504418       0.16241420       0.70669770      -0.87352581       0.05656970
W        4.69551917       4.65157367       4.80337874      -0.88089362      -1.51666845       1.44795387       0.48381247       0.71171903       0.37864693
16
Lattice="6.376 0.0 0.0 0.0 6.376 0.0 0.0 0.0 6.376" Properties=species:S:1:pos:R:3:momenta:R:3:forces:R:3 Temperature=396.01315984391124 Step=25000 energy=-202.88674343866572 free_energy=-202.88674343866572 stress="-0.010826395185262721 0.0002500454251720104 0.000395240945937731 0.0002500454251720104 -0.012260755896837332 0.00022445895744503078 0.000395240945937731 0.00022445895744503078 -0.016718509334408636" pbc="T T T"
W       -0.03227406      -0.01402857      -0.00632185      -0.33304741       1.36039638       1.95207509       0.16046141       0.24873509       0.00564024
W        1.58328916       1.60365650       1.62437395       0.47276380      -1.79398588       1.28143444       0.20882664      -0.03319093      -0.05521701
W       -0.02854291       0.05322657       3.09659625      -1.69219913       1.60977366       0.27630468      -0.30120871      -0.16126823       0.81735864
W        1.66026362       1.59242306       4.76746987      -0.43537156      -5.08862863      -1.49488061       0.05916274      -0.23666239      -0.08534695
W        0.18386186       3.20534161      -0.07499029       3.03564313       3.42673272      -4.69540933      -1.21625580      -0.07229268       0.38478632
W        1.37685529       4.80125270       1.60499909      -0.00749066       3.09898450      -1.30315305       1.36880067      -0.54463581       0.23946559
W        0.06191040       3.07202930       3.30608567      -0.47712991      -4.81250176      -1.97797067      -0.37739865       0.95016290      -0.71323818
W        1.56983274       4.93503348       4.70679029       2.23058645      -2.79322911      -0.18982784       0.27488059      -0.90011159       0.10244218
W        3.14276404      -0.10195727       0.10881110      -2.93167607       1.61044927       2.59347631      -0.06135677       0.58393521      -0.68109121
W        4.76913962       1.56470991       1.57963067      -2.38026233       0.81862628       0.59145820       0.22751188       0.42243725      -0.07884211
W        3.24927632      -0.06339926       3.13508401       4.93530058       0.48689910       4.68928436      -0.29023837       0.67129363       0.30376224
W        4.78793930       1.70150201       4.94309410       0.18055068      -2.73234349      -1.58286649       0.01093596      -1.01837743      -1.00576298
W        3.15397333       3.11790745      -0.04697890       1.37105121      -1.39007366      -2.92476879      -0.12460730       0.87400567       0.31779026
W        4.64106484       4.68504332       1.56315081       1.43158940       1.34909273       4.39747563       1.38418773       0.22548063      -0.08958528
W        3.37838562       3.22314142       3.16269668      -2.46491234       4.84381980      -2.50840285      -1.60708598      -0.39478184       0.46350961
W        4.75826083       4.88011774       4.78550850      -2.93539583       0.00598809       0.89577092       0.28338395      -0.61472946       0.07432863
16
Lattice="6.376 0.0 0.0 0.0 6.376 0.0 0.0 0.0 6.376" Properties=species:S:1:pos:R:3:momenta:R:3:forces:R:3 Temperature=397.02830770262847 Step=210000 energy=-202.8070124929866 free_energy=-202.8070124929866 stress="-0.012306073686796265 -0.00018266201328007148 -5.5979197107848164e-05 -0.00018266201328007148 -0.014784392241006054 0.0007765696909307313 -5.5979197107848164e-05 0.0007765696909307313 -0.01591912225820972" pbc="T T T"
W       -0.00692112      -0.02630711      -0.03999571       4.62504002      -4.95654944      -1.62417165       0.04892765      -0.20831201       0.57469048