16
Lattice="6.376 0.0 0.0 0.0 6.376 0.0 0.0 0.0 6.376" Properties=species:S:1:pos:R:3:momenta:R:3:forces:R:3 Temperature=1341.1956332032394 Step=164500 energy=-201.54133995166134 free_energy=-201.54133995166134 stress="-0.03194374001715811 0.002951545918584678 -0.000697329728618524 0.002951545918584678 -0.04310680248598228 -0.002896966578998373 -0.000697329728618524 -0.002896966578998373 -0.029230044839262916" pbc="T T T"
W       -0.03471037      -0.05866743       0.01769286       1.86402850      -0.60644553       3.29476504      -0.05726803       0.20385275      -0.73496710
W        1.60033406       1.44093161       1.48050133      -1.92032044     -13.87327811      -5.27472373       0.13364817       0.43398070       0.55454044
W       -0.11531724       0.01106742       3.12616632       4.68371510       0.91796940       4.44940820       0.72908442      -0.19555497       0.82576935
W        1.43354869       1.47982813       4.84151418      -7.83072016       5.08971282       1.38494900       0.44871024       0.55266358      -0.00152724
W        0.05780037       3.38130126       0.05746960      -1.05186546      -8.91707484       2.02243364       0.07317585      -1.10931105       0.04588954
W        1.72805379       4.93909975       1.57830667      -8.47518314       4.88569395       0.34851511      -0.20646995      -0.62558676       0.44953591
W        0.10714366       3.26022247       3.17836586       1.86871004      -1.65355859       1.45989688      -0.40404989      -0.19158580      -0.67327907
W        1.52132925       4.63758276       4.78791740      -1.38245292      -0.65725563       0.06484652       0.46761735       1.24587792       0.03748505
W        3.42385740      -0.07807487      -0.15722185      -3.59467702       0.58097549      -0.26532423      -1.76814193       1.64024571       1.52873501
W        4.94918784       1.70754909       1.47902462      -1.85448365      -0.73762346       2.32600359      -0.83021024      -0.71410150       1.00588812
W        3.21300249       0.09378921       3.45807318       1.36065264       2.72858190       0.38316461      -0.47058706      -0.39939810      -2.30408310
W        4.72596057       1.84533013       4.61798497       2.52970294       8.44589528       7.89083462       1.57877197      -1.55128251       1.43766130
W        3.31669288       3.11179037       0.08005898       3.63242045       5.83425581      -7.94859895      -1.79823437       0.01343831       0.23876730
W        4.82004342       4.85899165       1.62648266       5.65728153       4.10145015      -1.92450732      -0.77657079      -0.56855338       0.75759911
W        3.02072113       2.96428155       3.24335144      -0.14672244      -5.72851994      -8.27090752       0.12298652       1.40096559      -1.44399328
W        4.48835200       4.66097692       4.84031177       4.65991405      -0.41077870       0.05924454       2.75753774      -0.13565050      -1.72402135
16
Lattice="6.376 0.0 0.0 0.0 6.376 0.0 0.0 0.0 6.376" Properties=species:S:1:pos:R:3:momenta:R:3:forces:R:3 Temperature=974.3972171378425 Step=232000 energy=-200.92625319358464 free_energy=-200.92625319358464 stress="-0.039881597820582385 0.001382502134080719 -0.0022734176257025135 0.001382502134080719 -0.042495271953391346 0.004017247666287034 -0.0022734176257025135 0.004017247666287034 -0.040274993386204" pbc="T T T"
W       -0.04490981      -0.07201375       0.11086657       1.87648730      -0.02880124      -1.86876856       0.09023352       0.93201267      -1.05761848
W        1.62647394       1.55060628       1.73999211       4.38438838       1.38402237       2.41898819      -0.09390828       0.50377016      -0.56093355
W       -0.01435941      -0.08342352       3.25330676       3.55855379      -2.83404159       4.18171903      -0.05789558       0.72472945      -0.52531473
W        1.57181291       1.66511396       4.96793821      -5.16477721      -3.65428819       1.21566631      -0.48987200      -0.89906151      -1.76656562
W       -0.16862085       3.19794539       0.12837553      -6.96581335      -1.68743906      -0.92275195       2.06034465      -0.75239600      -0.51791226
W        1.49776979       5.04404217       1.58100096       2.57149078       5.40087753       6.76446846       1.47734661      -2.06420268       0.67249853
W        0.16169774       3.27718719       3.05095951       3.20543056      -0.47605377      -5.04286124      -0.89705185      -0.61274658       0.60210357
W        1.53191825       4.87952061       4.92420055      -0.84235545       8.48650244      -1.14610126       0.73762063      -0.43533677      -1.25442907
W        3.38450765      -0.07037168       0.01855703      -5.81986733       3.54922458      -0.05825769      -2.52919311       1.58358396      -2.02056375
W        4.74307978       1.46260129       1.49801270       4.44549492       3.12399669      -2.87551670       0.37502575       1.62923225       1.35740819
W        3.30408782       0.20710534       3.19293410      -2.55056894     -11.99316030      -0.28525508      -0.71997274      -2.03445860       0.87399461
W        4.85239455       1.58831461       4.71757409      -0.79639417      -2.05618954       1.67629662       0.29896420       0.31626293       0.05147280
W        3.02687180       3.09253732      -0.16163266       0.95155472      -1.29367112      -4.45237120       0.72879968       0.55820378       1.25091103
W        4.51674134       4.67359900       1.25344431      -0.59771215      -2.39618505      -7.83922029       1.67753715      -0.37536317       3.90017842
W        3.30414321       3.26535505       3.24556350       0.06422317       0.74889195       4.25691900      -1.34674741      -0.21102561      -0.53023319
W        4.96239125       4.57788079       4.73490671       1.67986499       3.72631431       3.97704637      -1.31123124       1.13679571      -0.47499650
16
Lattice="6.376 0.0 0.0 0.0 6.376 0.0 0.0 0.0 6.376" Properties=species:S:1:pos:R:3:momenta:R:3:forces:R:3 Temperature=1258.712759682641 Step=205500 energy=-201.7864467593027 free_energy=-201.7864467593027 stress="-0.026155299194740113 0.001066602729508004 -0.00024364358531562606 0.001066602729508004 -0.03455576185172589 -0.000265541671738164 -0.00024364358531562606 -0.000265541671738164 -0.02717651425073853" pbc="T T T"
W        0.19582248      -0.15392013       0.09234573      -0.63706787      -1.89663751      -2.12027895      -0.48938460       0.38924602      -1.46446878
W        1.36640721       1.52179790       1.58265949       0.82262821       2.38297167       1.20336449       1.71623404       0.81711429       0.18318325
W       -0.11183254      -0.07361893       3.12639497      -4.25839289      -0.11578277       3.75906402       1.13520868       0.07678164       1.41909333
W        1.56092648       1.74986334       4.84389501      -3.97761207       3.09935041       6.76124927      -0.21553901      -0.67078811      -0.45860858
W       -0.02037495       3.42223305      -0.10596173      -5.55224122      -4.08803637       0.39054135       0.38402338      -1.53949493       0.93667744
W        1.58540121       4.66363163       1.83924349      -0.39327465      -8.65328676       3.95356271       0.94022924       0.87490412      -1.54924147
W       -0.15120858       3.21511081       3.11836640       2.21856577       3.74243526      -9.08419281       0.48152927      -0.25882850       0.38860575
W        1.63364216       4.67948237       4.63739559       4.48850176      -0.51340608       8.82610171       0.54547485       0.65492230       0.78005259
W        3.25792535       0.16016347      -0.11541559      -1.98465323      -6.24961468      -5.89195387      -1.07425254      -1.12353200       1.19425636
W        4.99996235       1.39864564       1.58104845      -1.00790311      -4.17182243      -7.33614480      -1.82131410       1.39220646      -0.87242290
W        3.10463855       0.21474842       3.38732375      -1.01056648      -4.78501948       5.26634878       0.35122379      -1.17809207      -1.59120549
W        4.84555975       1.57756412       4.80370776       2.86986655       6.18002103      -0.30008393       0.06893898       0.37528409       0.48556710
W        3.21550189       3.19837860       0.11185053       0.85473795      -1.00943411       1.43668122      -0.25375626      -0.22746857      -0.79425001
W        4.75345040       4.75991098       1.45845444       6.74759746       5.37708196      -8.75324472      -0.82924564       0.64576568       1.15567532
W        3.24472205       3.06242528       3.08709374      -2.54512348       5.76344639      -2.14836886      -0.11414546       0.22306458       0.63598239
W        4.77545613       4.85958350       4.80759794       3.36493732       4.93773348       4.03735440      -0.82522461      -0.45108502      -0.44889629
16
Lattice="6.376 0.0 0.0 0.0 6.376 0.0 0.0 0.0 6.376" Properties=species:S:1:pos:R:3:momenta:R:3:forces:R:3 Temperature=1240.8305976151003 Step=155500 energy=-200.6275975589385 free_energy=-200.6275975589385 stress="-0.046545017199903456 -0.0025896099365296846 0.0014189458853951706 -0.0025896099365296846 -0.044803875410448425 0.002797712473652603 0.0014189458853951706 0.002797712473652603 -0.0589738041247286" pbc="T T T"
W        0.09568315       0.02296619      -0.33833760     -10.28334629      -3.82756948      -3.42430714      -0.68118507       0.78443514       2.10184661
W        1.80687442       1.57495477       1.57210933      -0.34007883      -2.37757909      -8.06758878      -2.37285695       0.22988567       0.35089967
W        0.18680938      -0.04061730       3.31285550      -2.38252584       0.40497069       2.93492056      -0.87930024       0.14088900      -0.74188526
W        1.68938890       1.61538277       4.83246783       4.42047192       2.09051625      -1.98809220      -0.25385381       0.44586619      -0.46183771
W       -0.33383519       3.07028355       0.04673050       0.51733343       5.41556322       0.09104349       2.86383048      -0.66633050      -1.27227976
W        1.53008687       4.72669098       1.44011116       4.08506540      -3.31216772       1.79265728      -0.85972913       0.86312269       0.79128555
W       -0.03636320       3.19994080       3.18816543       6.80296770       0.51092164      -0.85480297       0.42685956      -0.20629890       0.32269100
W        1.52376663       4.58839924       4.92658621      -1.63709038      -1.51573756       2.28922187       0.56659702       0.80710802      -0.49178114
W        3.36275331       0.04369408       0.10419907       2.80380947       3.86821681       2.10328044      -1.58477212       0.15719209      -1.21880209
W        4.85837434       1.67120029       1.67139679       1.26219772      -0.85623515      -2.53587360       0.32162791      -1.85328746       0.74450628
W        3.15085501      -0.01146939       3.12461680       7.89162935      -0.35953235       5.88083737      -0.63239561      -1.04386199       0.40594206
W        4.43536925       1.48427313       4.50755748     -10.15800679       0.71744403       3.26430510       2.48560461       1.50522117       1.65883833
W        3.30268613       3.27364315       0.29203325      -2.21730098      -0.21815288      -4.85116350      -1.44997831      -1.70456778      -2.69406472
W        4.74011071       4.82871796       1.50210824      -9.24527879       5.31380751       5.24353573       2.70520090       1.53610124       1.93034620
W        3.17478261       3.48375541       3.09363362      -2.63374391      -5.55696015      -1.09469981      -0.49743888      -1.57727884       0.91646618
W        4.76865764       4.72418444       4.97976638      11.11389683      -0.29750576      -0.78327385      -0.15821035       0.58180428      -2.34217119
16
Lattice="6.376 0.0 0.0 0.0 6.376 0.0 0.0 0.0 6.376" Properties=species:S:1:pos:R:3:momenta:R:3:forces:R:3 Temperature=1349.5084090016755 Step=280500 energy=-202.09786835466082 free_energy=-202.09786835466082 stress="-0.031168233765282015 -0.0029457214625669115 0.003337793070022705 -0.0029457214625669115 -0.022882556174024543 -0.0032689327828082132 0.003337793070022705 -0.0032689327828082132 -0.025261373000383232" pbc="T T T"
W       -0.17512513       0.18770070       0.01944511       5.52493243      -4.68458383      -4.25263504       1.75147781      -2.37446144      -0.72377135
W        1.66442147       1.65553984       1.46275048      -7.82161975       3.35010334       5.40308403      -0.50045417      -0.71643991       0.72414427
W        0.11539181      -0.01104285       3.16478679       2.38937326      -3.54253142      -2.11161934      -0.57087875       0.29739564       0.52391640
W        1.67558971       1.59572193       4.73569639      -1.60301098       0.57282115       6.41559977      -0.32624358      -0.45880682       0.57138918
W       -0.06633129       3.01925538       0.02736303      -3.91240246      -2.11649176      -0.96443895       0.50482227       1.98626087      -0.96899560
W        1.54106150       4.75226897       1.52776101       2.27555312      -2.65599690      -8.75599878      -0.04506203       0.32542834       0.49937353
W        0.01631781       3.12787621       3.36860780       0.04619891       1.15650880      -8.16455017       0.28128407       0.33170692      -1.00703295
W        1.61050260       4.75385030       4.94665947       6.06035682       9.19623300      -4.11480264      -0.53475640       0.69432216      -1.02630873
W        3.30801425      -0.12280405       0.11621937      -7.46158693      -0.58199907       7.51797728      -0.70917777       0.39637455      -0.48805670
W        4.82815888       1.60848349       1.43791674       2.74006020      -8.35467494      -3.10949374      -0.83127879       0.10581175       2.71689096
W        3.15366280       0.10080578       3.19492311      11.83468530       0.95320935      -1.74787629       0.12636565      -1.15103047      -0.59626099
W        4.70853076       1.62365683       4.76660841      -0.61903092       1.08755361       5.32225977      -0.08711726      -0.30291900      -0.88960123
W        3.19677252       3.18273561      -0.06775010       0.78174256       2.50509691       4.91180836       0.22831495       0.57637183       0.46601159
W        5.00176046       4.65732800       1.81489547      -6.03610079       0.83334816       1.65794031      -1.28163503       0.89878125      -1.18603371
W        3.06377594       3.23450219       3.03735046      -3.03163285       3.30557578       2.13448632       0.64452840       0.16288266       1.01868885
W        4.61349593       4.89012167       4.70276647      -1.16751791      -1.02417219      -0.14174088       1.34981062      -0.77167834       0.36564648
16
Lattice="6.376 0.0 0.0 0.0 6.376 0.0 0.0 0.0 6.376" Properties=species:S:1:pos:R:3:momenta:R:3:forces:R:3 Temperature=1130.8753813868193 Step=74000 energy=-201.8587132776048 free_energy=-201.8587132776048 stress="-0.03403245404359487 -0.002321213989712006 0.0003014074770017595 -0.002321213989712006 -0.010932797131050567 0.0006046784357549193 0.0003014074770017595 0.0006046784357549193 -0.030128278896485394" pbc="T T T"
W       -0.08558236       0.08142730       0.19875945       2.04158482      -4.00599010      -8.19006295       0.96826435      -0.05509410      -0.65736755
W        1.74696641       1.52865705       1.72990696       1.04274965       0.97370486      -3.28458459      -0.38929559       0.51742377      -0.96687602
W        0.05509275      -0.14997204       3.03546932      -0.60762205      -2.77457824       5.17095307      -0.35157349       1.11312349       0.43553040
W        1.47272665       1.61936056       4.77305607       0.03322183       2.42752723      -4.41787135       0.67617685      -0.67590487      -0.13275633
W        0.02780437       3.10367702      -0.07966384      -4.35948925      -2.75686873       6.11893599      -0.08738559       0.56140618       1.28315305
W        1.67663222       4.71353889       1.43674277      -3.56329770      -0.44727890       1.41725549      -0.23784815       0.23683803       1.30783705
W        0.02838040       3.09081561       2.97543008      -8.99509169      -1.39559613      -2.61393573      -0.42316884       0.47269717       0.97796817
W        1.37411750       4.76754000       4.76689569       3.03928636       1.41170557      -6.23498563       1.16464781       0.15519612      -0.06553747
W        3.19435186       0.06881262      -0.13311939       3.10291502       4.44181022       9.63190350      -0.63378717      -0.19056901       0.53869174
W        4.49365321       1.78761634       1.53149200       4.19027608       3.45081049       0.03750176       1.68300148      -1.47339851       1.23014069
W        3.31308121      -0.10925694       3.29255671       1.22771650       0.40487155       8.36676001      -1.25292204       0.42737426      -0.07184010
W        4.89343250       1.51271256       4.83935261      -2.80291322       1.64483131       0.63016489      -0.32573124       0.68685780      -0.97376502
W        3.31602898       3.33156266      -0.01120702       8.61514728      -4.71018834      -1.39471723      -1.57498057      -0.83682370      -1.10653652
W        4.64952868       4.93603045       1.58434535      -5.73520149       3.87283288      -8.54896886       0.68477130      -1.31131539       0.28181845
W        3.14526919       3.09653132       3.40729151       3.04054084      -0.89303031      -0.46466624       0.46641117       1.16433880      -0.83291491
W        4.95451636       4.87694666       4.90869169      -0.26982297      -1.64456336       3.77631788      -0.36658028      -0.79215002      -1.24754562
16
Lattice="6.376 0.0 0.0 0.0 6.376 0.0 0.0 0.0 6.376" Properties=species:S:1:pos:R:3:momenta:R:3:forces:R:3 Temperature=1628.0311452568976 Step=207000 energy=-202.1805554712632 free_energy=-202.1805554712632 stress="-0.02718785714654324 0.0005410684016126442 -0.0003507562089204659 0.0005410684016126442 -0.025771393331107416 0.0009191766627842512 -0.0003507562089204659 0.0009191766627842512 -0.029770569374331417" pbc="T T T"
W       -0.15414969      -0.03918781       0.11046416       7.45067553       5.31389788       7.21262681       1.04692193       0.36701091      -0.72732957
W        1.71111349       1.50886051       1.43892708       0.33087963      -0.97033049      -4.56549191      -0.35240461       0.11677123       0.47646039
W        0.06712282       0.00504045       3.11026568       5.09718265       0.02443526      -6.45692466      -1.13109820       0.60573693       0.64428584
W        1.50907878       1.49152596       4.66913466      -4.37550818      -0.57439140     -10.32153735       0.34417473       1.08976150       1.24964120
W        0.03864586       3.32270687       0.04590330       6.27781178       1.71467790       8.01343076      -0.14184296      -1.08107137       0.20475159
W        1.52449540       4.74286097       1.77937544      -4.96744307      -4.67403353      -3.62447971       1.98952365       0.94298108      -1.99197998
W        0.17222010       3.17138746       3.07308764       1.53574969      -3.45835997       3.69977314      -1.72775382      -0.61282559       0.67315699
W        1.42087637       4.83010935       4.78229519      -3.14229752      -1.83221823       0.12545686       1.11409300      -0.74530400       0.20220470
W        3.22347632      -0.03381565      -0.28557006       0.59178939      -1.85223677       2.07046073      -0.41824666      -0.01357561       2.27315794
W        4.73399346       1.60296848       1.49173129      -7.09688072      -2.65241250     -11.59003633       0.17325874       0.26329810       0.77295395
W        3.20641623       0.04311367       3.37632554      -4.65320733       4.04111915      -7.31271991       0.23801846      -0.12022254      -1.28318894
W        4.90435114       1.70990004       4.87341992      -3.62953664      -9.04031677       8.90730166      -0.51902133      -0.36486750      -0.90554506
W        3.21488720       3.14637532      -0.00845645       3.48226214       7.19627237       6.94016356      -0.55762848       0.66430733      -0.02830388
W        4.81411552       4.90448133       1.75157519       2.80862636      -1.11027637      -2.97590296      -1.28563666      -1.19184510      -0.76136022
W        3.12500522       3.10450451       3.17850020      -0.41489585       3.64683968       3.71781803       0.66959906       0.33171715       0.27519484
W        4.74435172       4.74516856       4.86902123       0.70479212       4.22733378       6.16006128       0.55804314      -0.25187252      -1.07409980
16
Lattice="6.376 0.0 0.0 0.0 6.376 0.0 0.0 0.0 6.376" Properties=species:S:1:pos:R:3:momenta:R:3:forces:R:3 Temperature=1156.891940795187 Step=117000 energy=-201.94319431681765 free_energy=-201.94319431681765 stress="-0.028308330144890807 0.0037319822870061073 -0.00031153126310171233 0.0037319822870061073 -0.026962290817719173 0.0004831244736440297 -0.00031153126310171233 0.0004831244736440297 -0.025476558719318528" pbc="T T T"
W        0.10923361      -0.01680953      -0.03743518      -7.19052009      -4.44593355      -2.55458958      -0.54616654      -0.31267047       0.36648850
W        1.39958680       1.54429474       1.53673695       2.04610405       1.15761247      -1.65803439       0.83467551       0.47708060       0.18629123
W        0.05489404      -0.04898427       3.24778969       4.43476605      -3.27129508      -2.74053239       0.43534974      -0.09675818      -0.50644992
W        1.64578233       1.66135547       4.68330718       0.55762814       3.26781417       7.47319374      -0.91240518      -0.15240382       0.79887354
W       -0.35668973       3.22391378      -0.00306354       6.40558217       2.51092328       1.04961120       3.11184152      -0.39669411      -0.27391966
W        1.78814351       4.52232038       1.58603389      -4.92148480       3.22360365      -8.78892942      -2.21198320       2.51453618      -0.57353263
W       -0.09007749       3.44454544       3.14280742       2.18873468      -2.67750666      -3.98848298       1.02852059      -1.89345693       0.97924287
W        1.70848296       4.89683600       4.82020403      -4.46998254       1.89588615       1.74756055      -0.32685105      -0.83722504       0.16561135
W        3.26603434       0.12761656       0.08520742      -6.20934487       2.41932131       2.18605175      -0.43755161      -0.56981059      -0.70573608
W        4.87226186       1.55228937       1.68828605       4.29299511       3.59583714       6.34626248      -0.27514981       0.01017522      -0.53732012
W        3.21715398       0.07671383       3.05331729      -1.44013420      -0.83231764      -7.66423392      -0.54130871      -0.44996161       1.14026424
W        4.86791814       1.51563498       4.68443163      -5.53094533      -2.44153710      -6.60304837      -0.42161208       0.49220780       0.57400146
W        3.15379272       3.14169790       0.08128174       1.04222284      -1.53011099       6.36052570       0.30262897      -0.71823910      -1.25120551
W        4.69291299       4.72283183       1.68549375       4.70034686       2.94572156       9.00400906       0.43159013       1.10332591      -0.86740904
W        3.11194011       3.14336002       3.16082870      -0.40467947      -4.70091155      -2.53123447       0.61471547      -0.26878520       0.89480629
W        4.81462979       4.74838353       4.84077301       4.49871139      -1.11710716       2.36187104      -1.08629375       1.09867933      -0.39000651
16
Lattice="6.376 0.0 0.0 0.0 6.376 0.0 0.0 0.0 6.376" Properties=species:S:1:pos:R:3:momenta:R:3:forces:R:3 Temperature=1710.595834794707 Step=174500 energy=-201.52535438244115 free_energy=-201.52535438244115 stress="-0.03301378276320627 0.0009145043708594554 0.00120081884252746 0.0009145043708594554 -0.02850191499681556 -0.0012022404080699793 0.00120081884252746 -0.0012022404080699793 -0.03173456112580079" pbc="T T T"
W       -0.03096468      -0.19524512       0.16663799      -3.43699198      -9.11742856       2.11746460      -0.05985352       1.18719033      -0.86121937
W        1.64857201       1.43578392       1.44493041       5.44757668       0.17507923       0.60123562       0.22484175       0.68120950       1.32902180
W        0.08846469       0.11324171       3.19804547      -2.46296365      -4.76656503       8.18478189      -1.02047922      -1.35798572      -0.64870122
W        1.22979065       1.46449422       4.81836321       1.92243421       5.36677690       5.96361102       2.71086876       0.84957034       0.07214010
W        0.10760918       3.13035640       0.12804633      -7.66654145      -1.91612184       4.02187235      -0.65273387       0.81398177      -0.54300505
W        1.80262199       4.74774612       1.68731142       0.56866052      -0.28230366      -0.51640167      -0.81335654       0.77948160      -0.75834271
W       -0.05601471       3.22049899       3.10173347       1.99669729      -8.94484034      -0.63813833       0.86642224       0.20897262       0.05689252
W        1.37290840       4.73418216       4.84895503       5.93091138       1.55033319      -5.85933530       2.02113281       0.28636634      -0.57590620
W        3.24316493       0.07351515       0.00188925      -0.71720710      -3.86753427     -14.77831867      -0.07722529      -0.98159262      -0.79538155
W        4.82081595       1.78709087       1.56816151      -1.48153965      -0.55065338       6.05380770      -0.60312558      -1.46893351       0.07860160
W        3.40532265       0.10970609       3.33672785       7.84069959       2.68277410      -5.41293575      -1.86899546      -0.50575775      -0.52955585
W        4.73807905       1.78610349       4.77090919       2.13264475       6.62390731       4.26205808       0.92841489      -1.36635278      -0.10312353
W        3.21344519       3.02944095      -0.17049338      -4.44820944       5.74007683       2.85881874      -1.05013086       1.76276716       0.85093117
W        4.73043863       4.88932862       1.58490323      -0.74342931      -1.68553149       6.79337548      -0.20050978      -0.83231248       0.37044844
W        3.04800229       3.18167515       3.04920651      -5.88852358       3.37451712     -11.92414252       0.63283418      -0.32858243       1.64181272
W        4.89374373       4.74808132       4.72067251       1.00578175       5.61751389      -1.72775324      -1.03810450       0.27197761       0.41538712
16
Lattice="6.376 0.0 0.0 0.0 6.376 0.0 0.0 0.0 6.376" Properties=species:S:1:pos:R:3:momenta:R:3:forces:R:3 Temperature=903.4622513926756 Step=14500 energy=-201.8778886336638 free_energy=-201.8778886336638 stress="-0.025382467772591746 0.0007915403989776885 0.0025189356726230605 0.0007915403989776885 -0.037960378997866924 -0.0013246056575264534 0.0025189356726230605 -0.0013246056575264534 -0.03302482240078388" pbc="T T T"
W       -0.03564706       0.08017735      -0.22267781       0.58947986       0.45121366      -0.57801923       0.08444759      -0.62875844       1.59282714
W        1.67122099       1.46651240       1.59103884       6.21020865       5.79201181       1.77999016      -1.43773576       0.61535773       1.08819448
W       -0.00696668      -0.12728118       3.35513050      -1.94461588       0.08156592       1.11332531      -0.16591865       0.80873129      -0.90320788
W        1.62125820       1.75167326       4.78782147      -5.74113019       4.88715498       1.37680756      -0.91273804      -1.09958304      -1.39444138
W        0.13014395       3.05808045       0.07280165      -0.00641779      -4.20422346       6.86252381      -1.62686058       1.15242104      -0.17613400
W        1.62898673       4.68709769       1.62481771       7.08298641       4.08149778       2.48164336      -0.04058429       1.07457078      -0.92405034
W        0.03592933       3.39919583       3.12720797      -3.24725768      -1.92855562      -3.13645149      -0.80783115      -1.60748495       0.51962245
W        1.58444066       4.70348441       4.87721578       4.32264506      -5.56642292       6.08534408       0.24816494       0.54492323      -0.42520666
W        3.04924610       0.26190580      -0.03578227       5.68246243      -1.76512229      -4.50457021       1.63531877      -2.56946157       0.03224134
W        4.92589050       1.45815972       1.68949533       3.91832790      -0.53471672      -4.12249977      -0.74136840       0.63377014      -0.23980326
W        3.03956189      -0.09855897       3.15184011      -3.20101749       5.21258741      -4.69828568       1.44496964       0.41887770       0.57590691
W        4.68242392       1.72761653       4.86120637      -2.79542243      -0.61268866       2.05911709       1.07147061      -0.74321970      -1.51718660
W        3.14156348       3.06904451      -0.05772917      -2.03414774       0.25685123      -0.25135185       1.40947630       1.39517725       1.72591121
W        4.93063522       4.86519109       1.53530688      -2.58908839       0.15650535       4.39932500      -1.27653804      -0.36803192      -0.07635242
W        3.14027997       3.11075719       3.10988633      -3.18439622      -6.97405439      -4.39419969       1.18754726       0.89930766      -0.16548845
W        4.71703272       4.84294397       4.78842031      -3.06261649       0.66639593      -4.47269846      -0.07182020      -0.52659719       0.28716747
16
Lattice="6.376 0.0 0.0 0.0 6.376 0.0 0.0 0.0 6.376" Properties=species:S:1:pos:R:3:momenta:R:3:forces:R:3 Temperature=1355.2996011663367 Step=202000 energy=-202.19144264412995 free_energy=-202.19144264412995 stress="-0.02013492592276106 0.0015748741801734295 0.00021088412222432246 0.0015748741801734295 -0.021353401953111976 0.00041121287069473717 0.00021088412222432246 0.00041121287069473717 -0.026906421474203683" pbc="T T T"
W        0.07662520      -0.04095803       0.04909390       3.15891042       1.77707112       6.89764685      -0.51792462      -0.13771974       0.17335513
W        1.72743769       1.75958946       1.68598370      -1.86426010       1.61905788       3.26364733      -0.98128159      -1.45611873      -1.02887957