16
Lattice="6.376 0.0 0.0 0.0 6.376 0.0 0.0 0.0 6.376" Properties=species:S:1:pos:R:3:momenta:R:3:forces:R:3 Temperature=1237.07908332215 Step=22000 energy=-202.65477715255676 free_energy=-202.65477715255676 stress="-0.015168774405203273 -0.0006218932893874323 0.00078414233408248 -0.0006218932893874323 -0.014470543897659827 0.002083289753148513 0.00078414233408248 0.002083289753148513 -0.014689459639755726" pbc="T T T"
W       -0.01702377       0.01247645      -0.03813090      -2.61701026       1.43568321       3.63261163      -0.20952679      -0.41135288       0.54605183
W        1.53387751       1.49446542       1.59601464       0.64499004       2.50243571      -6.38065060       0.58229945       1.00297345      -0.63722706
W       -0.04165143       0.17712322       3.25270759      -6.21522762       4.76530983      -0.38615700       0.25556007      -1.46531266      -0.77741119
W        1.65643982       1.55292054       4.86402400       0.89577914      -0.42574128       5.33866882      -0.14731751       0.97480060      -0.04067806
W        0.07462972       3.14694849      -0.09456547      -2.51271418       6.33075827       1.27067198      -0.70785267       0.47016815       0.50109920
W        1.54762168       4.58125937       1.44773188      -0.03434367      -0.99723145      -3.02742637       0.17283195       1.12916810       0.90383939
W        0.06995815       3.13929755       3.19455771       8.87206274      -0.73457623       7.22984788      -0.54083511       0.60962367       0.03401005
W        1.61197049       4.93310072       4.66656350      -3.06953332      -7.61473640      -2.75067076      -0.32464053      -1.76637238       1.10767108
W        3.14068611      -0.08889147       0.01417066      -0.56793425      -2.99764227      -5.53469589       0.64040534       0.22626202       0.49522560
W        4.78707885       1.52771181       1.65094649       3.66423467       3.23347550      -0.14132693      -0.25988248       0.68886896      -0.44494080
W        2.96887873       0.06314918       3.20432799       5.17974119      -0.92601347      -4.54494842       1.57206355      -0.60188455      -0.86165041
W        4.76033839       1.58780620       4.73236741       0.67333170      -0.05090401      -7.70767544      -0.22949341       0.38776155       0.63730094
W        3.41607263       3.15352665       0.01372804       3.79154363      -4.04759999       5.49063566      -1.15312380       0.44836156       0.09034999
W        4.83491972       4.81516847       1.74771169       3.70911647       1.16610619      11.82462857      -0.22271284      -0.51706255      -0.94241825
W        3.15930102       3.22121431       3.22784156      -2.22815605       1.02587230      -3.02175751       0.33496765      -0.06640625      -0.47633053
W        4.75290236       4.93872311       4.77600324     -10.18588025      -2.66519590      -1.29175561       0.23725714      -1.10959679      -0.13489178
16
Lattice="6.376 0.0 0.0 0.0 6.376 0.0 0.0 0.0 6.376" Properties=species:S:1:pos:R:3:momenta:R:3:forces:R:3 Temperature=823.0871979554682 Step=42000 energy=-202.20739491724294 free_energy=-202.20739491724294 stress="-0.02397861242554751 -0.0005202747925744394 0.0009016102745997542 -0.0005202747925744394 -0.02149331123222301 0.0013983216906751728 0.0009016102745997542 0.0013983216906751728 -0.02132757940945987" pbc="T T T"
W       -0.02304016      -0.02133254       0.02849827       1.17196164       5.82334692       2.74264552      -0.20761345      -0.32666712       0.33081789
W        1.73941924       1.37957728       1.55772996       2.70494607      -2.51224751      -1.70250800      -0.98007040       1.22389236       0.72903741
W       -0.01285693      -0.02808677       3.03769968       7.00576046       0.24368327       8.33637983      -0.47167622       0.11191310       0.74607961
W        1.47987896       1.50883910       4.80246292      -1.87900134      -1.03969518       0.79309441      -0.16436884       0.42933681      -0.71560997
W        0.19765543       3.14087932       0.10593722       5.06773073       0.72216405       1.79286987      -1.58319967       0.69287736      -0.65283214
W        1.58670227       4.65901836       1.57954124       2.38195933       5.22373967      -0.10276717       0.75407935       0.92846401       0.48533500
W       -0.02651314       3.25912578       3.22321968       4.95709349       0.26329795      -3.86141912       0.46235172      -0.27601494      -0.46844768
W        1.57060187       4.97075806       4.83377791      -4.18644209       0.96864578       1.88905789      -0.01881808      -1.40857925      -0.68387777
W        3.25462978       0.04982700      -0.08407606       1.76870104      -0.58887029      -1.01991433      -0.05957610      -0.78046693       0.87579343
W        4.87183194       1.70200800       1.58218815      -2.57140640       1.70197215      -3.13699924      -0.67422423      -0.41746864       0.16709697
W        3.23079075       0.18759817       3.39968994      -3.23420066       1.20739874      -4.12329925       0.24330062      -1.62280588      -1.97285987
W        4.74160234       1.68983835       4.83493249      -4.23284946       0.15120658      -0.77593411       1.35708332       0.08126674      -0.41844374
W        2.99924084       2.99371535      -0.15520090      -3.01368204       3.99359611       0.52374241       1.37732947       1.84635455       0.94637864
W        4.64507963       4.71933844       1.56969044       3.05806285      -3.94643241       1.82420803       0.52520810       0.07249647       0.06615357
W        3.17743818       3.14046407       3.20588970      -7.60504113     -10.22433317       1.61221498      -0.25915912       0.70213405       0.06562401
W        4.82353895       4.90443208       4.73401939      -1.39359251      -1.98747267      -4.79137170      -0.30064646      -1.25673269       0.49975466
16
Lattice="6.376 0.0 0.0 0.0 6.376 0.0 0.0 0.0 6.376" Properties=species:S:1:pos:R:3:momenta:R:3:forces:R:3 Temperature=1223.197904280554 Step=127000 energy=-202.34953427218727 free_energy=-202.34953427218727 stress="-0.01770346731356942 0.0018959180230463623 0.0001714778491746822 0.0018959180230463623 -0.02669911014476718 0.0003784789710867434 0.0001714778491746822 0.0003784789710867434 -0.025588600980060817" pbc="T T T"
W        0.09490054       0.01904328       0.16326871      -1.75693975       4.85649235      -7.88381769      -0.53241623      -0.08736094      -1.27433797
W        1.56508733       1.74904698       1.71709625      -3.83514080       9.19494365      -4.02760618      -0.23997765      -0.63436142      -0.48679448
W        0.08184718      -0.23624762       3.02158693       4.31138318      -3.33947899       5.82043980      -0.35491022       1.22334693       1.14962885
W        1.46102224       1.46801053       4.71139588       4.75890299      -4.75821022      -2.64597424       0.83285647       0.88217663       0.21151279
W        0.00799424       3.24152757      -0.11958116      -6.43227677      -2.55902800      -6.15503737      -0.48055247      -0.69658220       0.82758810
W        1.55600181       4.68166728       1.48420844       3.87316646       5.54803211       0.28189781       1.01445547       0.41564232       1.00763335
W       -0.15250537       3.27401714       3.34897438       7.71908265      -9.62605184       8.00136720       0.99939327      -0.45814129      -1.16898823
W        1.70504653       4.82733776       4.84225268      -5.69367597      -2.00069348       1.04842780      -0.23688120      -0.12930547      -0.56491224
W        3.08899259       0.14317782      -0.00401551      -2.74848221       4.00991353      -2.65808673       0.83217183      -0.46442845       0.14548795
W        4.84007304       1.47146517       1.62360452       5.94340252       1.90393358       5.23674199      -0.28088969       1.60817749      -0.40183611
W        3.26418586       0.18041960       3.10079983       4.82250277       1.98626276      -0.25048194      -0.59721003      -1.70359592       0.49815120
W        4.89757855       1.51306581       4.70055303      -2.64639608       3.17018244      -2.58065347      -0.83292954       0.04844478       0.79751798
W        3.04039206       3.14693841       0.04936472      -0.39583818      -1.22539989      -0.72865569       1.51308892      -0.26643632      -0.95966933
W        4.76761307       4.77796658       1.56642223      -1.46311321      -0.17923870      -0.12740201      -0.62128850      -0.38679022      -0.29356337
W        3.16258248       3.19647556       3.22850690      -2.89833989      -2.09379963       2.84545895       0.36534131       0.07545543       0.23045882
W        4.87518781       4.80208818       4.82156219      -3.55823771      -4.88785967       3.82338177      -1.38025174       0.57375864       0.28212269
16
Lattice="6.376 0.0 0.0 0.0 6.376 0.0 0.0 0.0 6.376" Properties=species:S:1:pos:R:3:momenta:R:3:forces:R:3 Temperature=1643.9393023351388 Step=177000 energy=-201.54459336598717 free_energy=-201.54459336598717 stress="-0.02929133609041162 0.0010481417265772164 -0.0010832357713650295 0.0010481417265772164 -0.03681209987783407 -0.002974156237262319 -0.0010832357713650295 -0.002974156237262319 -0.0344025171400294" pbc="T T T"
W       -0.02532831       0.05701632      -0.05907879       9.82326873       1.10764566       7.82177568      -0.14682708      -1.09247142       0.71049711
W        1.65049330       1.65229398       1.59804120      -1.03155652      -7.75127432      -4.28330847      -0.96965285      -0.54910343       0.45859940
W        0.12275932      -0.16585230       3.07678003      -2.52147954      -3.60009799       5.32104075      -1.76710592       1.15936519       0.63237279
W        1.53552003       1.57571498       4.76272521       2.75758495       2.55497666       1.27775498      -0.43575351      -0.28196229      -0.41658440
W        0.17976351       3.19130807      -0.12856518       1.34943397       1.09662804      -2.14092723      -1.57418954       0.62927729       1.27393160
W        1.50463710       4.76294989       1.75427389       5.89616170       2.63231265      -0.97846967       1.40664768       0.18968492      -1.70960679
W        0.04822950       3.23221607       3.32425317     -10.25767817      -4.27935163       4.92120509      -0.97605472      -0.12059501      -1.28261498
W        1.69516173       4.91860997       4.73538368      -1.63876622      -1.71773324      -2.73995200      -0.54854418      -0.59581681       0.47549845
W        3.04695067       0.24502920      -0.10113183     -14.22450247      -0.75866606       0.92015793       1.30376702      -2.21050461       1.77616170
W        4.83265200       1.56407322       1.57286611      -2.28433618       9.21493925       0.12820266       0.28155558       0.70398844      -0.19525755
W        3.47793157       0.14116677       3.25325060       4.23230929      -5.83478234      -2.07570523      -2.12789365      -1.99193564      -1.76472388
W        4.71672883       1.53437246       4.75494753      -1.19360471       2.85781979      -7.88885200       2.03200027       0.97420459       0.86718724
W        3.12090397       3.16467483       0.03059651      -0.73006472     -10.63428480       0.39018739       0.19071508       0.38862175       0.05179572
W        4.57948584       4.65650944       1.47408465      -3.19599760       2.26338188      -1.42191250       1.35873803       0.62149564       0.79351634
W        3.07001976       3.02900832       3.36416247       5.09522832       3.93547244       0.52529227       1.37031154       1.58065684      -1.52936775
W        4.70009112       4.69690880       4.84341074       7.92399917       8.91301401       0.22351037       0.60228624       0.59509456      -0.14140501
16
Lattice="6.376 0.0 0.0 0.0 6.376 0.0 0.0 0.0 6.376" Properties=species:S:1:pos:R:3:momenta:R:3:forces:R:3 Temperature=1061.0034916316777 Step=49500 energy=-202.2943461328607 free_energy=-202.2943461328607 stress="-0.01992013765201627 0.0009717649186726391 -0.0009766140669068175 0.0009717649186726391 -0.024335820740790617 -0.0021494368513588612 -0.0009766140669068175 -0.0021494368513588612 -0.018398079877769844" pbc="T T T"
W       -0.02431954      -0.10456094      -0.05912012      -0.48973865      -6.16293786      -2.06656659       0.55671543       0.75245469       0.74453737
W        1.50955922       1.49490746       1.65916241       6.91808629      -2.69390295       0.56010246       0.51230497       0.60560736      -0.54235666
W       -0.06859267       0.12226269       3.19748105      -3.32023278       2.83242592       2.23244082       0.46204498      -1.35337190      -0.24305524
W        1.64763139       1.64991313       4.81563372       0.22983934      -2.13888853      -1.27297509      -0.46711340      -0.47422929      -0.50884771
W        0.09105113       3.22521184      -0.13814807      -5.11108684      -0.76220478       7.34131044      -0.39181483       0.25876751       2.03293815
W        1.58650304       4.75166832       1.51851399       0.28386945      -2.90595717      -3.89555369       0.44317142      -0.05885375       0.63145222
W       -0.05765289       3.22291056       3.04324192       6.60404279       3.78419295       7.99224828       0.30387072       0.48916457       0.45097494
W        1.53731966       4.76635118       4.72197988      -4.76952749      -5.24161161      -2.99292828       0.96810084      -0.03219265       0.05544322
W        3.15388471       0.06115198      -0.03380203       5.39296811      -3.33425524      -7.75848287       0.21483859      -0.84127099       0.20397579
W        4.72172736       1.48234669       1.62461764      -3.05760287      -0.80617345      -2.47282580       0.46121094       0.87491605      -0.10865777
W        3.12104047       0.04519843       3.22264095      -0.83338197      -0.22772509       3.25186004       0.48738276      -0.42052311       0.13442659
W        5.04408746       1.75663314       4.86869731      -5.12308414      -0.91049049       4.38474559      -2.19173082      -1.21945189      -0.96785779
W        3.25605886       2.89486300       0.05236348       3.95044368       3.10751483       2.29904738      -0.32703199       2.62625372       0.06734919
W        4.76195737       4.88067558       1.60616074      -1.25736164       7.50244915      -2.87132505      -0.60195694      -0.99888950      -0.10046827
W        3.13246129       3.09793443       3.31421470       5.18242306       1.01255576      -5.01715258       0.70068325       0.94800075      -1.10434193
W        4.84328309       4.90853254       4.84236242      -4.59965634       6.94500853       0.28605494      -1.13067591      -1.15638158      -0.74551211
16
Lattice="6.376 0.0 0.0 0.0 6.376 0.0 0.0 0.0 6.376" Properties=species:S:1:pos:R:3:momenta:R:3:forces:R:3 Temperature=1267.867952228121 Step=89500 energy=-201.70245301712362 free_energy=-201.70245301712362 stress="-0.02147744169683081 0.0022582288029048252 0.002228133020118401 0.0022582288029048252 -0.035014527493829294 -0.0001231297252980028 0.002228133020118401 -0.0001231297252980028 -0.027717393251775708" pbc="T T T"
W       -0.08437928      -0.05425549      -0.00173866       0.79200772      -0.41064472      -0.94356170       0.80509611      -0.25082773       0.11157150
W        1.52805319       1.60573684       1.62343741       2.95403316      -9.40999192      -4.84522077       0.44485109       0.14487435      -0.23853638
W       -0.17983980       0.00743221       3.07804485       5.41429942       2.82554460      -4.30958203       1.40045732      -0.73114543       0.37530921
W        1.44684000       1.63585148       4.67596593      -1.33859558       2.55209073       4.29768749       1.29175135      -1.13814358       1.09029660
W        0.14079537       3.18095679      -0.03412443       5.21967695      -0.58969006      -1.79126951      -0.90397537       0.55724473       0.01670871
W        1.48083431       4.71641514       1.53114769      -5.09879869      -6.12216183       9.17831518       1.37563696       0.37053827       0.45566038
W        0.09659958       3.41646388       3.39121799       0.79248815      -7.29807702       3.48792659      -0.86092176      -1.02999338      -1.68027600
W        1.67238837       4.74440184       4.92751137      -2.30283567      -3.36449527      -4.40348957       0.39166846       1.10369396      -0.70922922
W        3.30678157       0.12576590       0.12848632      -1.69944815       0.96957667      -2.71813701      -1.21326519      -0.84134928      -0.71708761
W        5.01336018       1.65611013       1.51518518       1.19336230       3.63977877      -5.96422926      -1.46871312       0.12013782       1.58067060
W        3.04558400       0.10255085       3.16793260       5.40231152       7.62085739       0.88969419       0.46546587      -0.70830263      -0.23382214
W        4.84143488       1.49416253       4.78890885      -7.85244458       2.30112719       2.11767481      -0.03767924       0.65186243      -0.91757843
W        3.45192809       2.93624237      -0.04952738      -9.76883371       3.86405083      -1.46251614      -2.10367464       1.62683920       0.12402491
W        4.53514936       4.67315389       1.57575553       1.24220204       8.51489393      -0.69309930       1.28592769       0.50247514       0.10567061
W        3.14803023       3.10958647       3.28026323       5.11111922      -1.86707376       5.13031572       0.33039289       0.48363982      -0.62032122
W        4.81243990       4.90542521       4.65753354      -0.06054409      -3.22578554       2.02949130      -1.20301839      -0.86154368       1.25693847
16
Lattice="6.376 0.0 0.0 0.0 6.376 0.0 0.0 0.0 6.376" Properties=species:S:1:pos:R:3:momenta:R:3:forces:R:3 Temperature=933.2063895556786 Step=159500 energy=-201.2775613019624 free_energy=-201.2775613019624 stress="-0.036390785262701245 0.00018502604339859068 0.0005955755507574247 0.00018502604339859068 -0.028022258776035626 0.0008785276519357695 0.0005955755507574247 0.0008785276519357695 -0.03537745836711197" pbc="T T T"
W       -0.10329296      -0.18871536      -0.03812932       0.95202732      -0.35064833      -5.89531434       0.47565329       1.23651885      -0.20141146
W        1.63552736       1.50380021       1.45390552      -1.36544664      -1.56036008       0.95890082      -1.13125078      -0.45525880       1.06270147
W        0.00123996       0.00442730       3.25195302       3.21979046       2.99647556      -1.61851887       0.04405722       0.15157864      -0.11466685
W        1.70983232       1.81235227       4.85299743      -0.59532535       2.27705313       1.12529405      -1.33897592      -1.62034280      -0.14037089
W        0.03928698       3.10765541       0.19940351      -1.59058945      -3.66507973       1.88657067      -0.52573062       0.46101867      -1.43823356
W        1.51930779       4.79688322       1.55528965     -10.41868305      10.70238506       1.71000960      -0.04400967       1.36381966       0.50372499
W        0.15720275       3.23651816       3.23266833       0.60938918       0.51634766      -6.72303989      -1.12106459      -0.86899002      -0.50485088
W        1.84254166       4.89667930       4.73939110      -0.20020844      -3.83482279       3.11195980      -2.48407124      -0.49316068       0.27063390
W        3.31977992       0.09948150      -0.08636468       0.83291888      -5.26684350      -2.72476719      -0.64739304      -0.80157154       0.40733042
W        4.59724823       1.50101232       1.67545493      -0.19834921      -0.78253560      -8.00993488       2.15537947       0.36154964      -0.40719345
W        3.30249876       0.05453690       3.39299582      -0.16785489       1.81427607       0.95915253      -0.83742520      -0.08943178      -1.91784635
W        4.74222942       1.64370803       4.85372439      -1.01228246       0.49392103       5.87018647       1.23062929       0.61561812      -0.45621973
W        3.10858442       3.39907987       0.09435356       7.07881356       4.25776090       1.86208973       0.25268786      -2.19782536      -1.37644775
W        4.59053273       4.63330642       1.49493844       2.66772151       0.40660777      -1.83890941       2.45250582       1.76748260       1.81198526
W        3.03195910       3.12820808       2.98627456       2.07170689      -3.24564271       7.53853028       0.69516790       0.22839050       1.49079483
W        4.76152153       4.62706640       4.59714373      -1.88362833      -4.75889445       1.78779063       0.82384021       0.34060428       1.01007006
16
Lattice="6.376 0.0 0.0 0.0 6.376 0.0 0.0 0.0 6.376" Properties=species:S:1:pos:R:3:momenta:R:3:forces:R:3 Temperature=1392.458133046364 Step=169500 energy=-200.76812886967735 free_energy=-200.76812886967735 stress="-0.038247132895142325 0.0020829227786408598 -0.004164861250840612 0.0020829227786408598 -0.054774907244233735 -0.0031203020250169943 -0.004164861250840612 -0.0031203020250169943 -0.04136113869413525" pbc="T T T"
W       -0.00240510      -0.12524880       0.15528959       6.17558167       5.83147698      -8.61718547      -2.40985661       0.41450479      -3.20083269
W        1.33290908       1.41863403       1.49139687       3.52559064       1.71159646      -0.20143652       2.67185372       1.68836560       1.14918611
W       -0.00784766      -0.04561705       3.21935355      -7.39826653       1.83733949      -5.50681359      -1.20427491       0.42624052       0.25608282
W        1.57091183       1.68299093       4.94654465      -2.71453618      -1.58247999       7.28850125      -0.00862641      -0.35035337      -1.06902187
W        0.03418511       3.35677036       0.07651147      -0.37866751       0.27517976      -4.80317754       0.03732940      -0.72299501       0.38370234
W        1.54275313       5.12695201       1.51031151       1.33953996      11.55877240       4.77821281       2.37132375      -3.19654391       1.75521869
W        0.26888596       3.07554869       3.17833398       1.96841500      -0.82453442      -5.06241627      -1.78249993       1.15786979      -0.79217202
W        1.57929481       4.98339013       4.60949029      -6.86327341      -3.46890291       2.77782516       0.85108398      -1.72262548       1.07694215
W        3.19905499       0.05178894      -0.24439264       3.19845893      -7.84073896       2.69111439       0.67973736      -0.56729057       0.90045217
W        4.65945156       1.38269737       1.49938627      -2.26623032       2.16846861      -2.73865227       0.50055212       1.78545980       0.93577600
W        3.25599262       0.12991909       3.24017479      -4.94165240      -0.39003455       5.10481096       0.04428514      -0.43339050       0.07433916
W        5.02290772       1.81934875       4.88507861       7.33703900      -0.22536814      -5.39540492      -1.13481624      -1.32367832      -0.42024250
W        3.15147651       3.13600899       0.09394284       2.41853841      -1.46848181      10.24952021      -0.32423210       0.72167372      -0.52064828
W        4.55815186       4.65170288       1.54336484       1.50050312       1.38113455       6.12393151       0.94935796       0.46994528       1.07936114
W        3.23666018       3.08584065       3.31417985      -3.78481198      -3.04817012      -3.92619268      -0.61588905       0.25042898      -1.32679749
W        4.85361733       4.52527304       4.73703354       0.88377160      -5.91525736      -2.76263700      -0.62532818       1.40238867      -0.28134573
16
Lattice="6.376 0.0 0.0 0.0 6.376 0.0 0.0 0.0 6.376" Properties=species:S:1:pos:R:3:momenta:R:3:forces:R:3 Temperature=1141.0734227123723 Step=254500 energy=-202.19507955106803 free_energy=-202.19507955106803 stress="-0.03130520035174166 -7.394942187402575e-05 0.00042442657687567596 -7.394942187402575e-05 -0.02582580803390222 0.00020977425914574374 0.00042442657687567596 0.00020977425914574374 -0.015312052011351749" pbc="T T T"
W       -0.07328773       0.04344014       0.11465215       5.25220823      -1.43134295      -0.26137671      -0.09197517       0.76991816      -1.19531744
W        1.59602724       1.54193694       1.62088096       1.92577671      -0.08601253      -0.14648845       0.40810257       0.06844998       0.16727500
W        0.09058157       0.02055778       3.22693569      -5.42840417       1.29129279      -1.56999110      -0.88905305      -0.01393458       0.11755968
W        1.60218949       1.63553693       4.92260086       7.73867857       3.83034675      -2.02751684       0.30060051      -0.70128835      -1.13460521
W        0.04242819       3.08810034       0.02398640      -3.33437878      -2.76751964       2.21540717      -0.90199583       0.13902146      -0.49817554
W        1.46165822       4.81905682       1.49054579      -7.01060779       3.77912372      -9.05581764       0.99277004      -0.21746014       0.68557522
W        0.19105820       3.00319333       3.20739376      -5.92453333      -3.26459549       5.53160568      -1.45730763       1.31364637       0.05076094
W        1.59418453       4.92868873       4.94813724       4.73864913       1.52133095      -3.52660713      -0.17029335      -0.94267520      -1.03480707
W        3.31106050       0.05467927       0.02806756       0.06633222       2.17551419      -5.51131433      -0.42908656      -0.95932762      -0.04408992
W        4.56249175       1.64975006       1.61539363      -3.92844352       4.22254550       0.87141977       1.40108216      -0.07732975       0.59007214
W        3.24294314      -0.19394113       3.24217964       3.45963916      -4.95219417       9.61343436      -0.24684372       0.87333506      -0.58396130
W        4.53402908       1.59361605       4.72323249      -0.73630897       8.51362339       3.48977977       1.59050526       0.40563456      -0.36753766
W        3.14562403       3.17710814      -0.09097087       1.85695006      -4.54831669      -1.36942450       0.65512740       0.96326760       0.53746397
W        5.02504812       4.76540503       1.44947056       2.29243751       3.89427698       3.86913279      -1.68619783      -0.70626851       1.49715327
W        3.00881688       3.33303044       3.05693625      -3.31399869      -6.97052620      -0.74027480       1.03585697      -0.30681703       0.89625490
W        4.92114674       4.79584117       4.67655787       2.34600365      -5.20754659      -1.38196805      -0.51129177      -0.60817202       0.31637902
16
Lattice="6.376 0.0 0.0 0.0 6.376 0.0 0.0 0.0 6.376" Properties=species:S:1:pos:R:3:momenta:R:3:forces:R:3 Temperature=1211.8305065940551 Step=500 energy=-201.38462183413046 free_energy=-201.38462183413046 stress="-0.03472760295679082 0.0018438991253914136 -0.00227473796739422 0.0018438991253914136 -0.038078147584556916 0.0014895359925934555 -0.00227473796739422 0.0014895359925934555 -0.034943916645147156" pbc="T T T"
W        0.08968756      -0.08314245      -0.04457529      -4.60927444       3.49601667      -6.94994451      -0.44872116       1.04892219       0.14232846
W        1.63073206       1.83571332       1.56821361       0.82105842      -1.97017745      -0.88113492      -0.44153563      -1.88557702      -0.57629396
W        0.03542811       0.09169618       2.97089436      -2.79854786       2.68362889       0.08177307       0.40288101      -1.24752507       1.86531693
W        1.53868771       1.63820840       4.63962946       8.46514203      -1.18878184       0.01228627      -0.31943872      -0.42941976       1.60882419
W       -0.13249543       3.30689906       0.10418939      -8.11226185      -1.30521099      -0.45271204       0.63524844      -0.86285646      -1.25368434
W        1.71815382       4.72949327       1.48641355       2.38743490       7.51169384      -0.19335817      -1.27799850       0.38529437       1.20208195
W        0.03109640       3.26307072       3.25590771       3.84566126       0.05020880      -8.80608363      -0.44547794      -0.20518587       0.07259866
W        1.57079674       4.79152652       4.95778679      -2.82721265       1.56837007       4.71778902       0.20907099       0.06054150      -1.72252001
W        3.39109857      -0.07357771       0.03882188       0.51051580       3.19301045       2.37788143      -2.15614780       1.32864218      -0.11464494
W        4.96771332       1.49365318       1.56889263      -3.30139082      -7.12728036      -2.18289215      -1.16184453       1.04745116       0.09310640
W        3.18806838      -0.02131944       3.06429701       3.47833142      -1.52306016       0.73159755      -0.91536083       0.24870514       0.91217394
W        4.49460404       1.49431779       4.69411481     -11.74573164      -4.58950359       2.02322558       3.23427858       0.30503491       0.78102101
W        3.24275122       3.20142965       0.08785306       2.55088416      -1.42148983       2.68712721      -0.12834545      -0.97685717      -1.25468807
W        4.57036918       4.70271722       1.73633765       9.73504812       4.25785305       7.69582024       2.50702578       0.32707807      -0.37490202
W        3.20972611       3.02216279       3.24901634      -3.31148182      -1.98359283      -1.02754284      -0.45575885       1.57093793      -0.02763356
W        4.70958217       4.86315156       4.87820703       4.91182496      -1.65168471       0.16616787       0.76212462      -0.71518611      -1.35308466
16
Lattice="6.376 0.0 0.0 0.0 6.376 0.0 0.0 0.0 6.376" Properties=species:S:1:pos:R:3:momenta:R:3:forces:R:3 Temperature=893.1036218115362 Step=25500 energy=-201.47675644451658 free_energy=-201.47675644451658 stress="-0.032347206241743615 0.002309093712583486 -0.002234578280134266 0.002309093712583486 -0.04249935543277768 0.0011922713883929354 -0.002234578280134266 0.0011922713883929354 -0.039306448767346756" pbc="T T T"
W       -0.02866891      -0.04396841       0.17874699      -7.98264595       4.57081065      -5.48624556       1.01000679      -0.80141662      -1.75242218
W        1.43588333       1.64123764       1.51185285       3.93296680      -6.19713106      -1.09889506       1.02940989      -0.46323795      -0.26491715