2
Lattice="3.0341428571428573 0.0 0.0 0.0 3.0341428571428573 0.0 0.0 0.0 3.0341428571428573" Properties=species:S:1:pos:R:3:forces:R:3 energy_per_atom=-10.44579766117498 energy=-20.679391969584334 free_energy=-20.679391969584334 stress="0.19744038253580637 -6.0531160375899775e-18 1.4071724343979e-17 -6.0531160375899775e-18 0.19744038253580637 1.519880662819415e-17 1.4071724343979e-17 1.519880662819415e-17 0.19744038253580642" pbc="T T T"
Mo       0.00000000       0.00000000       0.00000000       0.00000000       0.00000000      -0.00000000
Mo       1.51707143       1.51707143       1.51707143      -0.00000000       0.00000000      -0.00000000
2
Lattice="3.0613142857142863 0.0 0.0 0.0 3.0613142857142863 0.0 0.0 0.0 3.0613142857142863" Properties=species:S:1:pos:R:3:forces:R:3 energy_per_atom=-10.537770154291934 energy=-20.679391969584334 free_energy=-20.679391969584334 stress="0.19744038253580637 -6.0531160375899775e-18 1.4071724343979e-17 -6.0531160375899775e-18 0.19744038253580637 1.519880662819415e-17 1.4071724343979e-17 1.519880662819415e-17 0.19744038253580642" pbc="T T T"
Mo       0.00000000       0.00000000       0.00000000       0.00000000       0.00000000      -0.00000000
Mo       1.53065714       1.53065714       1.53065714      -0.00000000       0.00000000      -0.00000000
2
Lattice="3.088485714285715 0.0 0.0 0.0 3.088485714285715 0.0 0.0 0.0 3.088485714285715" Properties=species:S:1:pos:R:3:forces:R:3 energy_per_atom=-10.607951123683835 energy=-20.679391969584334 free_energy=-20.679391969584334 stress="0.19744038253580637 -6.0531160375899775e-18 1.4071724343979e-17 -6.0531160375899775e-18 0.19744038253580637 1.519880662819415e-17 1.4071724343979e-17 1.519880662819415e-17 0.19744038253580642" pbc="T T T"
Mo       0.00000000       0.00000000       0.00000000       0.00000000       0.00000000      -0.00000000
Mo       1.54424286       1.54424286       1.54424286      -0.00000000       0.00000000      -0.00000000
2
Lattice="3.1156571428571427 0.0 0.0 0.0 3.1156571428571427 0.0 0.0 0.0 3.1156571428571427" Properties=species:S:1:pos:R:3:forces:R:3 energy_per_atom=-10.656836921803093 energy=-20.679391969584334 free_energy=-20.679391969584334 stress="0.19744038253580637 -6.0531160375899775e-18 1.4071724343979e-17 -6.0531160375899775e-18 0.19744038253580637 1.519880662819415e-17 1.4071724343979e-17 1.519880662819415e-17 0.19744038253580642" pbc="T T T"
Mo       0.00000000       0.00000000       0.00000000       0.00000000       0.00000000      -0.00000000
Mo       1.55782857       1.55782857       1.55782857      -0.00000000       0.00000000      -0.00000000
2
Lattice="3.142828571428572 0.0 0.0 0.0 3.142828571428572 0.0 0.0 0.0 3.142828571428572" Properties=species:S:1:pos:R:3:forces:R:3 energy_per_atom=-10.685324947279986 energy=-20.679391969584334 free_energy=-20.679391969584334 stress="0.19744038253580637 -6.0531160375899775e-18 1.4071724343979e-17 -6.0531160375899775e-18 0.19744038253580637 1.519880662819415e-17 1.4071724343979e-17 1.519880662819415e-17 0.19744038253580642" pbc="T T T"
Mo       0.00000000       0.00000000       0.00000000       0.00000000       0.00000000      -0.00000000
Mo       1.57141429       1.57141429       1.57141429      -0.00000000       0.00000000      -0.00000000
2
Lattice="3.197171428571429 0.0 0.0 0.0 3.197171428571429 0.0 0.0 0.0 3.197171428571429" Properties=species:S:1:pos:R:3:forces:R:3 energy_per_atom=-10.686065105767518 energy=-20.679391969584334 free_energy=-20.679391969584334 stress="0.19744038253580637 -6.0531160375899775e-18 1.4071724343979e-17 -6.0531160375899775e-18 0.19744038253580637 1.519880662819415e-17 1.4071724343979e-17 1.519880662819415e-17 0.19744038253580642" pbc="T T T"
Mo       0.00000000       0.00000000       0.00000000       0.00000000       0.00000000      -0.00000000
Mo       1.59858571       1.59858571       1.59858571      -0.00000000       0.00000000      -0.00000000
2
Lattice="3.2243428571428576 0.0 0.0 0.0 3.2243428571428576 0.0 0.0 0.0 3.2243428571428576" Properties=species:S:1:pos:R:3:forces:R:3 energy_per_atom=-10.66115189734882 energy=-20.679391969584334 free_energy=-20.679391969584334 stress="0.19744038253580637 -6.0531160375899775e-18 1.4071724343979e-17 -6.0531160375899775e-18 0.19744038253580637 1.519880662819415e-17 1.4071724343979e-17 1.519880662819415e-17 0.19744038253580642" pbc="T T T"
Mo       0.00000000       0.00000000       0.00000000       0.00000000       0.00000000      -0.00000000
Mo       1.61217143       1.61217143       1.61217143      -0.00000000       0.00000000      -0.00000000
2
Lattice="3.251514285714286 0.0 0.0 0.0 3.251514285714286 0.0 0.0 0.0 3.251514285714286" Properties=species:S:1:pos:R:3:forces:R:3 energy_per_atom=-10.621325063780315 energy=-20.679391969584334 free_energy=-20.679391969584334 stress="0.19744038253580637 -6.0531160375899775e-18 1.4071724343979e-17 -6.0531160375899775e-18 0.19744038253580637 1.519880662819415e-17 1.4071724343979e-17 1.519880662819415e-17 0.19744038253580642" pbc="T T T"
Mo       0.00000000       0.00000000       0.00000000       0.00000000       0.00000000      -0.00000000
Mo       1.62575714       1.62575714       1.62575714      -0.00000000       0.00000000      -0.00000000
2
Lattice="3.278685714285714 0.0 0.0 0.0 3.278685714285714 0.0 0.0 0.0 3.278685714285714" Properties=species:S:1:pos:R:3:forces:R:3 energy_per_atom=-10.56798811322519 energy=-20.679391969584334 free_energy=-20.679391969584334 stress="0.19744038253580637 -6.0531160375899775e-18 1.4071724343979e-17 -6.0531160375899775e-18 0.19744038253580637 1.519880662819415e-17 1.4071724343979e-17 1.519880662819415e-17 0.19744038253580642" pbc="T T T"
Mo       0.00000000       0.00000000       0.00000000       0.00000000       0.00000000      -0.00000000
Mo       1.63934286       1.63934286       1.63934286      -0.00000000       0.00000000      -0.00000000
2
Lattice="3.3058571428571435 0.0 0.0 0.0 3.3058571428571435 0.0 0.0 0.0 3.3058571428571435" Properties=species:S:1:pos:R:3:forces:R:3 energy_per_atom=-10.50246609648319 energy=-20.679391969584334 free_energy=-20.679391969584334 stress="0.19744038253580637 -6.0531160375899775e-18 1.4071724343979e-17 -6.0531160375899775e-18 0.19744038253580637 1.519880662819415e-17 1.4071724343979e-17 1.519880662819415e-17 0.19744038253580642" pbc="T T T"
Mo       0.00000000       0.00000000       0.00000000       0.00000000       0.00000000      -0.00000000
Mo       1.65292857       1.65292857       1.65292857      -0.00000000       0.00000000      -0.00000000
2
Lattice="3.333028571428572 0.0 0.0 0.0 3.333028571428572 0.0 0.0 0.0 3.333028571428572" Properties=species:S:1:pos:R:3:forces:R:3 energy_per_atom=-10.425992181390987 energy=-20.679391969584334 free_energy=-20.679391969584334 stress="0.19744038253580637 -6.0531160375899775e-18 1.4071724343979e-17 -6.0531160375899775e-18 0.19744038253580637 1.519880662819415e-17 1.4071724343979e-17 1.519880662819415e-17 0.19744038253580642" pbc="T T T"
Mo       0.00000000       0.00000000       0.00000000       0.00000000       0.00000000      -0.00000000
Mo       1.66651429       1.66651429       1.66651429      -0.00000000       0.00000000      -0.00000000
