2
Lattice="3.1142200000000004 0.0 0.0 0.0 3.1142200000000004 0.0 0.0 0.0 3.1142200000000004" Properties=species:S:1:pos:R:3:forces:R:3 energy_per_atom=-9.701778295921695 energy=-19.70400980466923 free_energy=-19.70400980466923 stress="0.11920521568660852 -3.419445951318523e-18 3.426338666924686e-18 -3.419445951318523e-18 0.11920521568660852 9.541158205456763e-18 3.426338666924686e-18 9.541158205456763e-18 0.11920521568660848" pbc="T T T"
Nb       0.00000000       0.00000000       0.00000000      -0.00000000       0.00000000       0.00000000
Nb       1.55711000       1.55711000       1.55711000       0.00000000      -0.00000000       0.00000000
2
Lattice="3.142617142857143 0.0 0.0 0.0 3.142617142857143 0.0 0.0 0.0 3.142617142857143" Properties=species:S:1:pos:R:3:forces:R:3 energy_per_atom=-9.81573211598785 energy=-19.70400980466923 free_energy=-19.70400980466923 stress="0.11920521568660852 -3.419445951318523e-18 3.426338666924686e-18 -3.419445951318523e-18 0.11920521568660852 9.541158205456763e-18 3.426338666924686e-18 9.541158205456763e-18 0.11920521568660848" pbc="T T T"
Nb       0.00000000       0.00000000       0.00000000      -0.00000000       0.00000000       0.00000000
Nb       1.57130857       1.57130857       1.57130857       0.00000000      -0.00000000       0.00000000
2
Lattice="3.171014285714286 0.0 0.0 0.0 3.171014285714286 0.0 0.0 0.0 3.171014285714286" Properties=species:S:1:pos:R:3:forces:R:3 energy_per_atom=-9.906276005920041 energy=-19.70400980466923 free_energy=-19.70400980466923 stress="0.11920521568660852 -3.419445951318523e-18 3.426338666924686e-18 -3.419445951318523e-18 0.11920521568660852 9.541158205456763e-18 3.426338666924686e-18 9.541158205456763e-18 0.11920521568660848" pbc="T T T"
Nb       0.00000000       0.00000000       0.00000000      -0.00000000       0.00000000       0.00000000
Nb       1.58550714       1.58550714       1.58550714       0.00000000      -0.00000000       0.00000000
2
Lattice="3.1994114285714295 0.0 0.0 0.0 3.1994114285714295 0.0 0.0 0.0 3.1994114285714295" Properties=species:S:1:pos:R:3:forces:R:3 energy_per_atom=-9.975747518418133 energy=-19.70400980466923 free_energy=-19.70400980466923 stress="0.11920521568660852 -3.419445951318523e-18 3.426338666924686e-18 -3.419445951318523e-18 0.11920521568660852 9.541158205456763e-18 3.426338666924686e-18 9.541158205456763e-18 0.11920521568660848" pbc="T T T"
Nb       0.00000000       0.00000000       0.00000000      -0.00000000       0.00000000       0.00000000
Nb       1.59970571       1.59970571       1.59970571       0.00000000      -0.00000000       0.00000000
2
Lattice="3.2278085714285725 0.0 0.0 0.0 3.2278085714285725 0.0 0.0 0.0 3.2278085714285725" Properties=species:S:1:pos:R:3:forces:R:3 energy_per_atom=-10.026401718214316 energy=-19.70400980466923 free_energy=-19.70400980466923 stress="0.11920521568660852 -3.419445951318523e-18 3.426338666924686e-18 -3.419445951318523e-18 0.11920521568660852 9.541158205456763e-18 3.426338666924686e-18 9.541158205456763e-18 0.11920521568660848" pbc="T T T"
Nb       0.00000000       0.00000000       0.00000000      -0.00000000       0.00000000       0.00000000
Nb       1.61390429       1.61390429       1.61390429       0.00000000      -0.00000000       0.00000000
2
Lattice="3.2562057142857146 0.0 0.0 0.0 3.2562057142857146 0.0 0.0 0.0 3.2562057142857146" Properties=species:S:1:pos:R:3:forces:R:3 energy_per_atom=-10.060369574878528 energy=-19.70400980466923 free_energy=-19.70400980466923 stress="0.11920521568660852 -3.419445951318523e-18 3.426338666924686e-18 -3.419445951318523e-18 0.11920521568660852 9.541158205456763e-18 3.426338666924686e-18 9.541158205456763e-18 0.11920521568660848" pbc="T T T"
Nb       0.00000000       0.00000000       0.00000000      -0.00000000       0.00000000       0.00000000
Nb       1.62810286       1.62810286       1.62810286       0.00000000      -0.00000000       0.00000000
2
Lattice="3.2846028571428576 0.0 0.0 0.0 3.2846028571428576 0.0 0.0 0.0 3.2846028571428576" Properties=species:S:1:pos:R:3:forces:R:3 energy_per_atom=-10.079599482365285 energy=-19.70400980466923 free_energy=-19.70400980466923 stress="0.11920521568660852 -3.419445951318523e-18 3.426338666924686e-18 -3.419445951318523e-18 0.11920521568660852 9.541158205456763e-18 3.426338666924686e-18 9.541158205456763e-18 0.11920521568660848" pbc="T T T"
Nb       0.00000000       0.00000000       0.00000000      -0.00000000       0.00000000       0.00000000
Nb       1.64230143       1.64230143       1.64230143       0.00000000      -0.00000000       0.00000000
2
Lattice="3.3413971428571427 0.0 0.0 0.0 3.3413971428571427 0.0 0.0 0.0 3.3413971428571427" Properties=species:S:1:pos:R:3:forces:R:3 energy_per_atom=-10.080388642385632 energy=-19.70400980466923 free_energy=-19.70400980466923 stress="0.11920521568660852 -3.419445951318523e-18 3.426338666924686e-18 -3.419445951318523e-18 0.11920521568660852 9.541158205456763e-18 3.426338666924686e-18 9.541158205456763e-18 0.11920521568660848" pbc="T T T"
Nb       0.00000000       0.00000000       0.00000000      -0.00000000       0.00000000       0.00000000
Nb       1.67069857       1.67069857       1.67069857       0.00000000      -0.00000000       0.00000000
2
Lattice="3.3697942857142857 0.0 0.0 0.0 3.3697942857142857 0.0 0.0 0.0 3.3697942857142857" Properties=species:S:1:pos:R:3:forces:R:3 energy_per_atom=-10.06450968333432 energy=-19.70400980466923 free_energy=-19.70400980466923 stress="0.11920521568660852 -3.419445951318523e-18 3.426338666924686e-18 -3.419445951318523e-18 0.11920521568660852 9.541158205456763e-18 3.426338666924686e-18 9.541158205456763e-18 0.11920521568660848" pbc="T T T"
Nb       0.00000000       0.00000000       0.00000000      -0.00000000       0.00000000       0.00000000
Nb       1.68489714       1.68489714       1.68489714       0.00000000      -0.00000000       0.00000000
2
Lattice="3.398191428571429 0.0 0.0 0.0 3.398191428571429 0.0 0.0 0.0 3.398191428571429" Properties=species:S:1:pos:R:3:forces:R:3 energy_per_atom=-10.039036049516397 energy=-19.70400980466923 free_energy=-19.70400980466923 stress="0.11920521568660852 -3.419445951318523e-18 3.426338666924686e-18 -3.419445951318523e-18 0.11920521568660852 9.541158205456763e-18 3.426338666924686e-18 9.541158205456763e-18 0.11920521568660848" pbc="T T T"
Nb       0.00000000       0.00000000       0.00000000      -0.00000000       0.00000000       0.00000000
Nb       1.69909571       1.69909571       1.69909571       0.00000000      -0.00000000       0.00000000
2
Lattice="3.4265885714285713 0.0 0.0 0.0 3.4265885714285713 0.0 0.0 0.0 3.4265885714285713" Properties=species:S:1:pos:R:3:forces:R:3 energy_per_atom=-10.004623919936677 energy=-19.70400980466923 free_energy=-19.70400980466923 stress="0.11920521568660852 -3.419445951318523e-18 3.426338666924686e-18 -3.419445951318523e-18 0.11920521568660852 9.541158205456763e-18 3.426338666924686e-18 9.541158205456763e-18 0.11920521568660848" pbc="T T T"
Nb       0.00000000       0.00000000       0.00000000      -0.00000000       0.00000000       0.00000000
Nb       1.71329429       1.71329429       1.71329429       0.00000000      -0.00000000       0.00000000
2
Lattice="3.4549857142857148 0.0 0.0 0.0 3.4549857142857148 0.0 0.0 0.0 3.4549857142857148" Properties=species:S:1:pos:R:3:forces:R:3 energy_per_atom=-9.961757095800763 energy=-19.70400980466923 free_energy=-19.70400980466923 stress="0.11920521568660852 -3.419445951318523e-18 3.426338666924686e-18 -3.419445951318523e-18 0.11920521568660852 9.541158205456763e-18 3.426338666924686e-18 9.541158205456763e-18 0.11920521568660848" pbc="T T T"
Nb       0.00000000       0.00000000       0.00000000      -0.00000000       0.00000000       0.00000000
Nb       1.72749286       1.72749286       1.72749286       0.00000000      -0.00000000       0.00000000
2
Lattice="3.483382857142858 0.0 0.0 0.0 3.483382857142858 0.0 0.0 0.0 3.483382857142858" Properties=species:S:1:pos:R:3:forces:R:3 energy_per_atom=-9.910792583619795 energy=-19.70400980466923 free_energy=-19.70400980466923 stress="0.11920521568660852 -3.419445951318523e-18 3.426338666924686e-18 -3.419445951318523e-18 0.11920521568660852 9.541158205456763e-18 3.426338666924686e-18 9.541158205456763e-18 0.11920521568660848" pbc="T T T"
Nb       0.00000000       0.00000000       0.00000000      -0.00000000       0.00000000       0.00000000
Nb       1.74169143       1.74169143       1.74169143       0.00000000      -0.00000000       0.00000000
2
Lattice="3.5117800000000003 0.0 0.0 0.0 3.5117800000000003 0.0 0.0 0.0 3.5117800000000003" Properties=species:S:1:pos:R:3:forces:R:3 energy_per_atom=-9.852004902334615 energy=-19.70400980466923 free_energy=-19.70400980466923 stress="0.11920521568660852 -3.419445951318523e-18 3.426338666924686e-18 -3.419445951318523e-18 0.11920521568660852 9.541158205456763e-18 3.426338666924686e-18 9.541158205456763e-18 0.11920521568660848" pbc="T T T"
Nb       0.00000000       0.00000000       0.00000000      -0.00000000       0.00000000       0.00000000
Nb       1.75589000       1.75589000       1.75589000       0.00000000      -0.00000000       0.00000000
