4
Lattice="3.8446000000000002 0.0 0.0 0.0 3.8446000000000002 0.0 0.0 0.0 3.8446000000000002" Properties=species:S:1:pos:R:3:forces:R:3 energy_per_atom=-10.347276605686783 energy=-40.26418708402362 free_energy=-40.26418708402362 stress="0.20733292476536902 -1.4880503706261801e-18 1.1839547177554039e-18 -1.4880503706261801e-18 0.20733292476536902 -3.4754334589409486e-19 1.1839547177554039e-18 -3.4754334589409486e-19 0.20733292476536902" pbc="T T T"
Mo       0.00000000       0.00000000       0.00000000       0.00000000       0.00000000       0.00000000
Mo       0.00000000       1.92230000       1.92230000      -0.00000000      -0.00000000       0.00000000
Mo       1.92230000       0.00000000       1.92230000       0.00000000      -0.00000000       0.00000000
Mo       1.92230000       1.92230000       0.00000000      -0.00000000       0.00000000      -0.00000000
4
Lattice="3.8796571428571425 0.0 0.0 0.0 3.8796571428571425 0.0 0.0 0.0 3.8796571428571425" Properties=species:S:1:pos:R:3:forces:R:3 energy_per_atom=-10.431992916181265 energy=-40.26418708402362 free_energy=-40.26418708402362 stress="0.20733292476536902 -1.4880503706261801e-18 1.1839547177554039e-18 -1.4880503706261801e-18 0.20733292476536902 -3.4754334589409486e-19 1.1839547177554039e-18 -3.4754334589409486e-19 0.20733292476536902" pbc="T T T"
Mo       0.00000000       0.00000000       0.00000000       0.00000000       0.00000000       0.00000000
Mo       0.00000000       1.93982857       1.93982857      -0.00000000      -0.00000000       0.00000000
Mo       1.93982857       0.00000000       1.93982857       0.00000000      -0.00000000       0.00000000
Mo       1.93982857       1.93982857       0.00000000      -0.00000000       0.00000000      -0.00000000
4
Lattice="3.914714285714285 0.0 0.0 0.0 3.914714285714285 0.0 0.0 0.0 3.914714285714285" Properties=species:S:1:pos:R:3:forces:R:3 energy_per_atom=-10.496611971029932 energy=-40.26418708402362 free_energy=-40.26418708402362 stress="0.20733292476536902 -1.4880503706261801e-18 1.1839547177554039e-18 -1.4880503706261801e-18 0.20733292476536902 -3.4754334589409486e-19 1.1839547177554039e-18 -3.4754334589409486e-19 0.20733292476536902" pbc="T T T"
Mo       0.00000000       0.00000000       0.00000000       0.00000000       0.00000000       0.00000000
Mo       0.00000000       1.95735714       1.95735714      -0.00000000      -0.00000000       0.00000000
Mo       1.95735714       0.00000000       1.95735714       0.00000000      -0.00000000       0.00000000
Mo       1.95735714       1.95735714       0.00000000      -0.00000000       0.00000000      -0.00000000
4
Lattice="3.949771428571429 0.0 0.0 0.0 3.949771428571429 0.0 0.0 0.0 3.949771428571429" Properties=species:S:1:pos:R:3:forces:R:3 energy_per_atom=-10.541939351218506 energy=-40.26418708402362 free_energy=-40.26418708402362 stress="0.20733292476536902 -1.4880503706261801e-18 1.1839547177554039e-18 -1.4880503706261801e-18 0.20733292476536902 -3.4754334589409486e-19 1.1839547177554039e-18 -3.4754334589409486e-19 0.20733292476536902" pbc="T T T"
Mo       0.00000000       0.00000000       0.00000000       0.00000000       0.00000000       0.00000000
Mo       0.00000000       1.97488571       1.97488571      -0.00000000      -0.00000000       0.00000000
Mo       1.97488571       0.00000000       1.97488571       0.00000000      -0.00000000       0.00000000
Mo       1.97488571       1.97488571       0.00000000      -0.00000000       0.00000000      -0.00000000
4
Lattice="3.9848285714285723 0.0 0.0 0.0 3.9848285714285723 0.0 0.0 0.0 3.9848285714285723" Properties=species:S:1:pos:R:3:forces:R:3 energy_per_atom=-10.568869627450617 energy=-40.26418708402362 free_energy=-40.26418708402362 stress="0.20733292476536902 -1.4880503706261801e-18 1.1839547177554039e-18 -1.4880503706261801e-18 0.20733292476536902 -3.4754334589409486e-19 1.1839547177554039e-18 -3.4754334589409486e-19 0.20733292476536902" pbc="T T T"
Mo       0.00000000       0.00000000       0.00000000       0.00000000       0.00000000       0.00000000
Mo       0.00000000       1.99241429       1.99241429      -0.00000000      -0.00000000       0.00000000
Mo       1.99241429       0.00000000       1.99241429       0.00000000      -0.00000000       0.00000000
Mo       1.99241429       1.99241429       0.00000000      -0.00000000       0.00000000      -0.00000000
4
Lattice="4.0198857142857145 0.0 0.0 0.0 4.0198857142857145 0.0 0.0 0.0 4.0198857142857145" Properties=species:S:1:pos:R:3:forces:R:3 energy_per_atom=-10.578397877609504 energy=-40.26418708402362 free_energy=-40.26418708402362 stress="0.20733292476536902 -1.4880503706261801e-18 1.1839547177554039e-18 -1.4880503706261801e-18 0.20733292476536902 -3.4754334589409486e-19 1.1839547177554039e-18 -3.4754334589409486e-19 0.20733292476536902" pbc="T T T"
Mo       0.00000000       0.00000000       0.00000000       0.00000000       0.00000000       0.00000000
Mo       0.00000000       2.00994286       2.00994286      -0.00000000      -0.00000000       0.00000000
Mo       2.00994286       0.00000000       2.00994286       0.00000000      -0.00000000       0.00000000
Mo       2.00994286       2.00994286       0.00000000      -0.00000000       0.00000000      -0.00000000
4
Lattice="4.054942857142856 0.0 0.0 0.0 4.054942857142856 0.0 0.0 0.0 4.054942857142856" Properties=species:S:1:pos:R:3:forces:R:3 energy_per_atom=-10.571624325147354 energy=-40.26418708402362 free_energy=-40.26418708402362 stress="0.20733292476536902 -1.4880503706261801e-18 1.1839547177554039e-18 -1.4880503706261801e-18 0.20733292476536902 -3.4754334589409486e-19 1.1839547177554039e-18 -3.4754334589409486e-19 0.20733292476536902" pbc="T T T"
Mo       0.00000000       0.00000000       0.00000000       0.00000000       0.00000000       0.00000000
Mo       0.00000000       2.02747143       2.02747143      -0.00000000      -0.00000000       0.00000000
Mo       2.02747143       0.00000000       2.02747143       0.00000000      -0.00000000       0.00000000
Mo       2.02747143       2.02747143       0.00000000      -0.00000000       0.00000000      -0.00000000
4
Lattice="4.09 0.0 0.0 0.0 4.09 0.0 0.0 0.0 4.09" Properties=species:S:1:pos:R:3:forces:R:3 energy_per_atom=-10.549736290453499 energy=-40.26418708402362 free_energy=-40.26418708402362 stress="0.20733292476536902 -1.4880503706261801e-18 1.1839547177554039e-18 -1.4880503706261801e-18 0.20733292476536902 -3.4754334589409486e-19 1.1839547177554039e-18 -3.4754334589409486e-19 0.20733292476536902" pbc="T T T"
Mo       0.00000000       0.00000000       0.00000000       0.00000000       0.00000000       0.00000000
Mo       0.00000000       2.04500000       2.04500000      -0.00000000      -0.00000000       0.00000000
Mo       2.04500000       0.00000000       2.04500000       0.00000000      -0.00000000       0.00000000
Mo       2.04500000       2.04500000       0.00000000      -0.00000000       0.00000000      -0.00000000
4
Lattice="4.125057142857143 0.0 0.0 0.0 4.125057142857143 0.0 0.0 0.0 4.125057142857143" Properties=species:S:1:pos:R:3:forces:R:3 energy_per_atom=-10.513958629536916 energy=-40.26418708402362 free_energy=-40.26418708402362 stress="0.20733292476536902 -1.4880503706261801e-18 1.1839547177554039e-18 -1.4880503706261801e-18 0.20733292476536902 -3.4754334589409486e-19 1.1839547177554039e-18 -3.4754334589409486e-19 0.20733292476536902" pbc="T T T"
Mo       0.00000000       0.00000000       0.00000000       0.00000000       0.00000000       0.00000000
Mo       0.00000000       2.06252857       2.06252857      -0.00000000      -0.00000000       0.00000000
Mo       2.06252857       0.00000000       2.06252857       0.00000000      -0.00000000       0.00000000
Mo       2.06252857       2.06252857       0.00000000      -0.00000000       0.00000000      -0.00000000
4
Lattice="4.160114285714284 0.0 0.0 0.0 4.160114285714284 0.0 0.0 0.0 4.160114285714284" Properties=species:S:1:pos:R:3:forces:R:3 energy_per_atom=-10.465484602148686 energy=-40.26418708402362 free_energy=-40.26418708402362 stress="0.20733292476536902 -1.4880503706261801e-18 1.1839547177554039e-18 -1.4880503706261801e-18 0.20733292476536902 -3.4754334589409486e-19 1.1839547177554039e-18 -3.4754334589409486e-19 0.20733292476536902" pbc="T T T"
Mo       0.00000000       0.00000000       0.00000000       0.00000000       0.00000000       0.00000000
Mo       0.00000000       2.08005714       2.08005714      -0.00000000      -0.00000000       0.00000000
Mo       2.08005714       0.00000000       2.08005714       0.00000000      -0.00000000       0.00000000
Mo       2.08005714       2.08005714       0.00000000      -0.00000000       0.00000000      -0.00000000
4
Lattice="4.195171428571429 0.0 0.0 0.0 4.195171428571429 0.0 0.0 0.0 4.195171428571429" Properties=species:S:1:pos:R:3:forces:R:3 energy_per_atom=-10.40540957888272 energy=-40.26418708402362 free_energy=-40.26418708402362 stress="0.20733292476536902 -1.4880503706261801e-18 1.1839547177554039e-18 -1.4880503706261801e-18 0.20733292476536902 -3.4754334589409486e-19 1.1839547177554039e-18 -3.4754334589409486e-19 0.20733292476536902" pbc="T T T"
Mo       0.00000000       0.00000000       0.00000000       0.00000000       0.00000000       0.00000000
Mo       0.00000000       2.09758571       2.09758571      -0.00000000      -0.00000000       0.00000000
Mo       2.09758571       0.00000000       2.09758571       0.00000000      -0.00000000       0.00000000
Mo       2.09758571       2.09758571       0.00000000      -0.00000000       0.00000000      -0.00000000
4
Lattice="4.230228571428571 0.0 0.0 0.0 4.230228571428571 0.0 0.0 0.0 4.230228571428571" Properties=species:S:1:pos:R:3:forces:R:3 energy_per_atom=-10.334687588034816 energy=-40.26418708402362 free_energy=-40.26418708402362 stress="0.20733292476536902 -1.4880503706261801e-18 1.1839547177554039e-18 -1.4880503706261801e-18 0.20733292476536902 -3.4754334589409486e-19 1.1839547177554039e-18 -3.4754334589409486e-19 0.20733292476536902" pbc="T T T"
Mo       0.00000000       0.00000000       0.00000000       0.00000000       0.00000000       0.00000000
Mo       0.00000000       2.11511429       2.11511429      -0.00000000      -0.00000000       0.00000000
Mo       2.11511429       0.00000000       2.11511429       0.00000000      -0.00000000       0.00000000
Mo       2.11511429       2.11511429       0.00000000      -0.00000000       0.00000000      -0.00000000
2
Lattice="3.0341428571428573 0.0 0.0 0.0 3.0341428571428573 0.0 0.0 0.0 3.0341428571428573" Properties=species:S:1:pos:R:3:forces:R:3 energy_per_atom=-10.44579766117498 energy=-20.679391969584334 free_energy=-20.679391969584334 stress="0.19744038253580637 -6.0531160375899775e-18 1.4071724343979e-17 -6.0531160375899775e-18 0.19744038253580637 1.519880662819415e-17 1.4071724343979e-17 1.519880662819415e-17 0.19744038253580642" pbc="T T T"
Mo       0.00000000       0.00000000       0.00000000       0.00000000       0.00000000      -0.00000000
Mo       1.51707143       1.51707143       1.51707143      -0.00000000       0.00000000      -0.00000000
2
Lattice="3.0613142857142863 0.0 0.0 0.0 3.0613142857142863 0.0 0.0 0.0 3.0613142857142863" Properties=species:S:1:pos:R:3:forces:R:3 energy_per_atom=-10.537770154291934 energy=-20.679391969584334 free_energy=-20.679391969584334 stress="0.19744038253580637 -6.0531160375899775e-18 1.4071724343979e-17 -6.0531160375899775e-18 0.19744038253580637 1.519880662819415e-17 1.4071724343979e-17 1.519880662819415e-17 0.19744038253580642" pbc="T T T"
Mo       0.00000000       0.00000000       0.00000000       0.00000000       0.00000000      -0.00000000
Mo       1.53065714       1.53065714       1.53065714      -0.00000000       0.00000000      -0.00000000
2
Lattice="3.088485714285715 0.0 0.0 0.0 3.088485714285715 0.0 0.0 0.0 3.088485714285715" Properties=species:S:1:pos:R:3:forces:R:3 energy_per_atom=-10.607951123683835 energy=-20.679391969584334 free_energy=-20.679391969584334 stress="0.19744038253580637 -6.0531160375899775e-18 1.4071724343979e-17 -6.0531160375899775e-18 0.19744038253580637 1.519880662819415e-17 1.4071724343979e-17 1.519880662819415e-17 0.19744038253580642" pbc="T T T"
Mo       0.00000000       0.00000000       0.00000000       0.00000000       0.00000000      -0.00000000
Mo       1.54424286       1.54424286       1.54424286      -0.00000000       0.00000000      -0.00000000
2
Lattice="3.1156571428571427 0.0 0.0 0.0 3.1156571428571427 0.0 0.0 0.0 3.1156571428571427" Properties=species:S:1:pos:R:3:forces:R:3 energy_per_atom=-10.656836921803093 energy=-20.679391969584334 free_energy=-20.679391969584334 stress="0.19744038253580637 -6.0531160375899775e-18 1.4071724343979e-17 -6.0531160375899775e-18 0.19744038253580637 1.519880662819415e-17 1.4071724343979e-17 1.519880662819415e-17 0.19744038253580642" pbc="T T T"
Mo       0.00000000       0.00000000       0.00000000       0.00000000       0.00000000      -0.00000000
Mo       1.55782857       1.55782857       1.55782857      -0.00000000       0.00000000      -0.00000000
2
Lattice="3.142828571428572 0.0 0.0 0.0 3.142828571428572 0.0 0.0 0.0 3.142828571428572" Properties=species:S:1:pos:R:3:forces:R:3 energy_per_atom=-10.685324947279986 energy=-20.679391969584334 free_energy=-20.679391969584334 stress="0.19744038253580637 -6.0531160375899775e-18 1.4071724343979e-17 -6.0531160375899775e-18 0.19744038253580637 1.519880662819415e-17 1.4071724343979e-17 1.519880662819415e-17 0.19744038253580642" pbc="T T T"
Mo       0.00000000       0.00000000       0.00000000       0.00000000       0.00000000      -0.00000000
Mo       1.57141429       1.57141429       1.57141429      -0.00000000       0.00000000      -0.00000000
2
Lattice="3.197171428571429 0.0 0.0 0.0 3.197171428571429 0.0 0.0 0.0 3.197171428571429" Properties=species:S:1:pos:R:3:forces:R:3 energy_per_atom=-10.686065105767518 energy=-20.679391969584334 free_energy=-20.679391969584334 stress="0.19744038253580637 -6.0531160375899775e-18 1.4071724343979e-17 -6.0531160375899775e-18 0.19744038253580637 1.519880662819415e-17 1.4071724343979e-17 1.519880662819415e-17 0.19744038253580642" pbc="T T T"
Mo       0.00000000       0.00000000       0.00000000       0.00000000       0.00000000      -0.00000000
Mo       1.59858571       1.59858571       1.59858571      -0.00000000       0.00000000      -0.00000000
2
Lattice="3.2243428571428576 0.0 0.0 0.0 3.2243428571428576 0.0 0.0 0.0 3.2243428571428576" Properties=species:S:1:pos:R:3:forces:R:3 energy_per_atom=-10.66115189734882 energy=-20.679391969584334 free_energy=-20.679391969584334 stress="0.19744038253580637 -6.0531160375899775e-18 1.4071724343979e-17 -6.0531160375899775e-18 0.19744038253580637 1.519880662819415e-17 1.4071724343979e-17 1.519880662819415e-17 0.19744038253580642" pbc="T T T"
Mo       0.00000000       0.00000000       0.00000000       0.00000000       0.00000000      -0.00000000
Mo       1.61217143       1.61217143       1.61217143      -0.00000000       0.00000000      -0.00000000
2
Lattice="3.251514285714286 0.0 0.0 0.0 3.251514285714286 0.0 0.0 0.0 3.251514285714286" Properties=species:S:1:pos:R:3:forces:R:3 energy_per_atom=-10.621325063780315 energy=-20.679391969584334 free_energy=-20.679391969584334 stress="0.19744038253580637 -6.0531160375899775e-18 1.4071724343979e-17 -6.0531160375899775e-18 0.19744038253580637 1.519880662819415e-17 1.4071724343979e-17 1.519880662819415e-17 0.19744038253580642" pbc="T T T"
Mo       0.00000000       0.00000000       0.00000000       0.00000000       0.00000000      -0.00000000
Mo       1.62575714       1.62575714       1.62575714      -0.00000000       0.00000000      -0.00000000
2
Lattice="3.278685714285714 0.0 0.0 0.0 3.278685714285714 0.0 0.0 0.0 3.278685714285714" Properties=species:S:1:pos:R:3:forces:R:3 energy_per_atom=-10.56798811322519 energy=-20.679391969584334 free_energy=-20.679391969584334 stress="0.19744038253580637 -6.0531160375899775e-18 1.4071724343979e-17 -6.0531160375899775e-18 0.19744038253580637 1.519880662819415e-17 1.4071724343979e-17 1.519880662819415e-17 0.19744038253580642" pbc="T T T"
Mo       0.00000000       0.00000000       0.00000000       0.00000000       0.00000000      -0.00000000
Mo       1.63934286       1.63934286       1.63934286      -0.00000000       0.00000000      -0.00000000
2
Lattice="3.3058571428571435 0.0 0.0 0.0 3.3058571428571435 0.0 0.0 0.0 3.3058571428571435" Properties=species:S:1:pos:R:3:forces:R:3 energy_per_atom=-10.50246609648319 energy=-20.679391969584334 free_energy=-20.679391969584334 stress="0.19744038253580637 -6.0531160375899775e-18 1.4071724343979e-17 -6.0531160375899775e-18 0.19744038253580637 1.519880662819415e-17 1.4071724343979e-17 1.519880662819415e-17 0.19744038253580642" pbc="T T T"
Mo       0.00000000       0.00000000       0.00000000       0.00000000       0.00000000      -0.00000000
Mo       1.65292857       1.65292857       1.65292857      -0.00000000       0.00000000      -0.00000000
2
Lattice="3.333028571428572 0.0 0.0 0.0 3.333028571428572 0.0 0.0 0.0 3.333028571428572" Properties=species:S:1:pos:R:3:forces:R:3 energy_per_atom=-10.425992181390987 energy=-20.679391969584334 free_energy=-20.679391969584334 stress="0.19744038253580637 -6.0531160375899775e-18 1.4071724343979e-17 -6.0531160375899775e-18 0.19744038253580637 1.519880662819415e-17 1.4071724343979e-17 1.519880662819415e-17 0.19744038253580642" pbc="T T T"
Mo       0.00000000       0.00000000       0.00000000       0.00000000       0.00000000      -0.00000000
Mo       1.66651429       1.66651429       1.66651429      -0.00000000       0.00000000      -0.00000000
