4
Lattice="3.876428571428571 0.0 0.0 0.0 3.876428571428571 0.0 0.0 0.0 3.876428571428571" Properties=species:S:1:pos:R:3:forces:R:3 energy_per_atom=-12.465958868219019 energy=-49.26686569356943 free_energy=-49.26686569356943 stress="0.1964597811961682 5.0469543834880015e-18 -1.2424599834156998e-17 5.0469543834880015e-18 0.19645978119616822 2.0237037608664807e-18 -1.2424599834156998e-17 2.0237037608664807e-18 0.19645978119616825" pbc="T T T"
W        0.00000000       0.00000000       0.00000000       0.00000000       0.00000000      -0.00000000
W        0.00000000       1.93821429       1.93821429      -0.00000000       0.00000000       0.00000000
W        1.93821429       0.00000000       1.93821429       0.00000000      -0.00000000      -0.00000000
W        1.93821429       1.93821429       0.00000000      -0.00000000      -0.00000000       0.00000000
4
Lattice="3.911142857142856 0.0 0.0 0.0 3.911142857142856 0.0 0.0 0.0 3.911142857142856" Properties=species:S:1:pos:R:3:forces:R:3 energy_per_atom=-12.542824373050061 energy=-49.26686569356943 free_energy=-49.26686569356943 stress="0.1964597811961682 5.0469543834880015e-18 -1.2424599834156998e-17 5.0469543834880015e-18 0.19645978119616822 2.0237037608664807e-18 -1.2424599834156998e-17 2.0237037608664807e-18 0.19645978119616825" pbc="T T T"
W        0.00000000       0.00000000       0.00000000       0.00000000       0.00000000      -0.00000000
W        0.00000000       1.95557143       1.95557143      -0.00000000       0.00000000       0.00000000
W        1.95557143       0.00000000       1.95557143       0.00000000      -0.00000000      -0.00000000
W        1.95557143       1.95557143       0.00000000      -0.00000000      -0.00000000       0.00000000
4
Lattice="3.9458571428571423 0.0 0.0 0.0 3.9458571428571423 0.0 0.0 0.0 3.9458571428571423" Properties=species:S:1:pos:R:3:forces:R:3 energy_per_atom=-12.601360537337216 energy=-49.26686569356943 free_energy=-49.26686569356943 stress="0.1964597811961682 5.0469543834880015e-18 -1.2424599834156998e-17 5.0469543834880015e-18 0.19645978119616822 2.0237037608664807e-18 -1.2424599834156998e-17 2.0237037608664807e-18 0.19645978119616825" pbc="T T T"
W        0.00000000       0.00000000       0.00000000       0.00000000       0.00000000      -0.00000000
W        0.00000000       1.97292857       1.97292857      -0.00000000       0.00000000       0.00000000
W        1.97292857       0.00000000       1.97292857       0.00000000      -0.00000000      -0.00000000
W        1.97292857       1.97292857       0.00000000      -0.00000000      -0.00000000       0.00000000
4
Lattice="3.9805714285714275 0.0 0.0 0.0 3.9805714285714275 0.0 0.0 0.0 3.9805714285714275" Properties=species:S:1:pos:R:3:forces:R:3 energy_per_atom=-12.642314726375492 energy=-49.26686569356943 free_energy=-49.26686569356943 stress="0.1964597811961682 5.0469543834880015e-18 -1.2424599834156998e-17 5.0469543834880015e-18 0.19645978119616822 2.0237037608664807e-18 -1.2424599834156998e-17 2.0237037608664807e-18 0.19645978119616825" pbc="T T T"
W        0.00000000       0.00000000       0.00000000       0.00000000       0.00000000      -0.00000000
W        0.00000000       1.99028571       1.99028571      -0.00000000       0.00000000       0.00000000
W        1.99028571       0.00000000       1.99028571       0.00000000      -0.00000000      -0.00000000
W        1.99028571       1.99028571       0.00000000      -0.00000000      -0.00000000       0.00000000
4
Lattice="4.015285714285714 0.0 0.0 0.0 4.015285714285714 0.0 0.0 0.0 4.015285714285714" Properties=species:S:1:pos:R:3:forces:R:3 energy_per_atom=-12.666284976280515 energy=-49.26686569356943 free_energy=-49.26686569356943 stress="0.1964597811961682 5.0469543834880015e-18 -1.2424599834156998e-17 5.0469543834880015e-18 0.19645978119616822 2.0237037608664807e-18 -1.2424599834156998e-17 2.0237037608664807e-18 0.19645978119616825" pbc="T T T"
W        0.00000000       0.00000000       0.00000000       0.00000000       0.00000000      -0.00000000
W        0.00000000       2.00764286       2.00764286      -0.00000000       0.00000000       0.00000000
W        2.00764286       0.00000000       2.00764286       0.00000000      -0.00000000      -0.00000000
W        2.00764286       2.00764286       0.00000000      -0.00000000      -0.00000000       0.00000000
4
Lattice="4.05 0.0 0.0 0.0 4.05 0.0 0.0 0.0 4.05" Properties=species:S:1:pos:R:3:forces:R:3 energy_per_atom=-12.673657040983489 energy=-49.26686569356943 free_energy=-49.26686569356943 stress="0.1964597811961682 5.0469543834880015e-18 -1.2424599834156998e-17 5.0469543834880015e-18 0.19645978119616822 2.0237037608664807e-18 -1.2424599834156998e-17 2.0237037608664807e-18 0.19645978119616825" pbc="T T T"
W        0.00000000       0.00000000       0.00000000       0.00000000       0.00000000      -0.00000000
W        0.00000000       2.02500000       2.02500000      -0.00000000       0.00000000       0.00000000
W        2.02500000       0.00000000       2.02500000       0.00000000      -0.00000000      -0.00000000
W        2.02500000       2.02500000       0.00000000      -0.00000000      -0.00000000       0.00000000
4
Lattice="4.084714285714285 0.0 0.0 0.0 4.084714285714285 0.0 0.0 0.0 4.084714285714285" Properties=species:S:1:pos:R:3:forces:R:3 energy_per_atom=-12.66482455556308 energy=-49.26686569356943 free_energy=-49.26686569356943 stress="0.1964597811961682 5.0469543834880015e-18 -1.2424599834156998e-17 5.0469543834880015e-18 0.19645978119616822 2.0237037608664807e-18 -1.2424599834156998e-17 2.0237037608664807e-18 0.19645978119616825" pbc="T T T"
W        0.00000000       0.00000000       0.00000000       0.00000000       0.00000000      -0.00000000
W        0.00000000       2.04235714       2.04235714      -0.00000000       0.00000000       0.00000000
W        2.04235714       0.00000000       2.04235714       0.00000000      -0.00000000      -0.00000000
W        2.04235714       2.04235714       0.00000000      -0.00000000      -0.00000000       0.00000000
4
Lattice="4.119428571428571 0.0 0.0 0.0 4.119428571428571 0.0 0.0 0.0 4.119428571428571" Properties=species:S:1:pos:R:3:forces:R:3 energy_per_atom=-12.64039232528735 energy=-49.26686569356943 free_energy=-49.26686569356943 stress="0.1964597811961682 5.0469543834880015e-18 -1.2424599834156998e-17 5.0469543834880015e-18 0.19645978119616822 2.0237037608664807e-18 -1.2424599834156998e-17 2.0237037608664807e-18 0.19645978119616825" pbc="T T T"
W        0.00000000       0.00000000       0.00000000       0.00000000       0.00000000      -0.00000000
W        0.00000000       2.05971429       2.05971429      -0.00000000       0.00000000       0.00000000
W        2.05971429       0.00000000       2.05971429       0.00000000      -0.00000000      -0.00000000
W        2.05971429       2.05971429       0.00000000      -0.00000000      -0.00000000       0.00000000
4
Lattice="4.1541428571428565 0.0 0.0 0.0 4.1541428571428565 0.0 0.0 0.0 4.1541428571428565" Properties=species:S:1:pos:R:3:forces:R:3 energy_per_atom=-12.601227085435777 energy=-49.26686569356943 free_energy=-49.26686569356943 stress="0.1964597811961682 5.0469543834880015e-18 -1.2424599834156998e-17 5.0469543834880015e-18 0.19645978119616822 2.0237037608664807e-18 -1.2424599834156998e-17 2.0237037608664807e-18 0.19645978119616825" pbc="T T T"
W        0.00000000       0.00000000       0.00000000       0.00000000       0.00000000      -0.00000000
W        0.00000000       2.07707143       2.07707143      -0.00000000       0.00000000       0.00000000
W        2.07707143       0.00000000       2.07707143       0.00000000      -0.00000000      -0.00000000
W        2.07707143       2.07707143       0.00000000      -0.00000000      -0.00000000       0.00000000
4
Lattice="4.188857142857142 0.0 0.0 0.0 4.188857142857142 0.0 0.0 0.0 4.188857142857142" Properties=species:S:1:pos:R:3:forces:R:3 energy_per_atom=-12.548360529939659 energy=-49.26686569356943 free_energy=-49.26686569356943 stress="0.1964597811961682 5.0469543834880015e-18 -1.2424599834156998e-17 5.0469543834880015e-18 0.19645978119616822 2.0237037608664807e-18 -1.2424599834156998e-17 2.0237037608664807e-18 0.19645978119616825" pbc="T T T"
W        0.00000000       0.00000000       0.00000000       0.00000000       0.00000000      -0.00000000
W        0.00000000       2.09442857       2.09442857      -0.00000000       0.00000000       0.00000000
W        2.09442857       0.00000000       2.09442857       0.00000000      -0.00000000      -0.00000000
W        2.09442857       2.09442857       0.00000000      -0.00000000      -0.00000000       0.00000000
4
Lattice="4.223571428571427 0.0 0.0 0.0 4.223571428571427 0.0 0.0 0.0 4.223571428571427" Properties=species:S:1:pos:R:3:forces:R:3 energy_per_atom=-12.482814112616058 energy=-49.26686569356943 free_energy=-49.26686569356943 stress="0.1964597811961682 5.0469543834880015e-18 -1.2424599834156998e-17 5.0469543834880015e-18 0.19645978119616822 2.0237037608664807e-18 -1.2424599834156998e-17 2.0237037608664807e-18 0.19645978119616825" pbc="T T T"
W        0.00000000       0.00000000       0.00000000       0.00000000       0.00000000      -0.00000000
W        0.00000000       2.11178571       2.11178571      -0.00000000       0.00000000       0.00000000
W        2.11178571       0.00000000       2.11178571       0.00000000      -0.00000000      -0.00000000
W        2.11178571       2.11178571       0.00000000      -0.00000000      -0.00000000       0.00000000
4
Lattice="4.258285714285713 0.0 0.0 0.0 4.258285714285713 0.0 0.0 0.0 4.258285714285713" Properties=species:S:1:pos:R:3:forces:R:3 energy_per_atom=-12.405422285810797 energy=-49.26686569356943 free_energy=-49.26686569356943 stress="0.1964597811961682 5.0469543834880015e-18 -1.2424599834156998e-17 5.0469543834880015e-18 0.19645978119616822 2.0237037608664807e-18 -1.2424599834156998e-17 2.0237037608664807e-18 0.19645978119616825" pbc="T T T"
W        0.00000000       0.00000000       0.00000000       0.00000000       0.00000000      -0.00000000
W        0.00000000       2.12914286       2.12914286      -0.00000000       0.00000000       0.00000000
W        2.12914286       0.00000000       2.12914286       0.00000000      -0.00000000      -0.00000000
W        2.12914286       2.12914286       0.00000000      -0.00000000      -0.00000000       0.00000000
2
Lattice="3.051371428571429 0.0 0.0 0.0 3.051371428571429 0.0 0.0 0.0 3.051371428571429" Properties=species:S:1:pos:R:3:forces:R:3 energy_per_atom=-12.500035309099237 energy=-24.770213559210287 free_energy=-24.770213559210287 stress="0.21228139280477606 1.5269765041325775e-17 2.651870359836976e-18 1.5269765041325775e-17 0.2122813928047754 6.907086817744981e-19 2.651870359836976e-18 6.907086817744981e-19 0.21228139280477545" pbc="T T T"
W        0.00000000       0.00000000       0.00000000      -0.00000000       0.00000000       0.00000000
W        1.52568571       1.52568571       1.52568571      -0.00000000      -0.00000000      -0.00000000
2
Lattice="3.0786971428571426 0.0 0.0 0.0 3.0786971428571426 0.0 0.0 0.0 3.0786971428571426" Properties=species:S:1:pos:R:3:forces:R:3 energy_per_atom=-12.591319355054376 energy=-24.770213559210287 free_energy=-24.770213559210287 stress="0.21228139280477606 1.5269765041325775e-17 2.651870359836976e-18 1.5269765041325775e-17 0.2122813928047754 6.907086817744981e-19 2.651870359836976e-18 6.907086817744981e-19 0.21228139280477545" pbc="T T T"
W        0.00000000       0.00000000       0.00000000      -0.00000000       0.00000000       0.00000000
W        1.53934857       1.53934857       1.53934857      -0.00000000      -0.00000000      -0.00000000
2
Lattice="3.1060228571428565 0.0 0.0 0.0 3.1060228571428565 0.0 0.0 0.0 3.1060228571428565" Properties=species:S:1:pos:R:3:forces:R:3 energy_per_atom=-12.661329729575288 energy=-24.770213559210287 free_energy=-24.770213559210287 stress="0.21228139280477606 1.5269765041325775e-17 2.651870359836976e-18 1.5269765041325775e-17 0.2122813928047754 6.907086817744981e-19 2.651870359836976e-18 6.907086817744981e-19 0.21228139280477545" pbc="T T T"
W        0.00000000       0.00000000       0.00000000      -0.00000000       0.00000000       0.00000000
W        1.55301143       1.55301143       1.55301143      -0.00000000      -0.00000000      -0.00000000
2
Lattice="3.133348571428572 0.0 0.0 0.0 3.133348571428572 0.0 0.0 0.0 3.133348571428572" Properties=species:S:1:pos:R:3:forces:R:3 energy_per_atom=-12.709705819496929 energy=-24.770213559210287 free_energy=-24.770213559210287 stress="0.21228139280477606 1.5269765041325775e-17 2.651870359836976e-18 1.5269765041325775e-17 0.2122813928047754 6.907086817744981e-19 2.651870359836976e-18 6.907086817744981e-19 0.21228139280477545" pbc="T T T"
W        0.00000000       0.00000000       0.00000000      -0.00000000       0.00000000       0.00000000
W        1.56667429       1.56667429       1.56667429      -0.00000000      -0.00000000      -0.00000000
2
Lattice="3.1606742857142853 0.0 0.0 0.0 3.1606742857142853 0.0 0.0 0.0 3.1606742857142853" Properties=species:S:1:pos:R:3:forces:R:3 energy_per_atom=-12.737519518373206 energy=-24.770213559210287 free_energy=-24.770213559210287 stress="0.21228139280477606 1.5269765041325775e-17 2.651870359836976e-18 1.5269765041325775e-17 0.2122813928047754 6.907086817744981e-19 2.651870359836976e-18 6.907086817744981e-19 0.21228139280477545" pbc="T T T"
W        0.00000000       0.00000000       0.00000000      -0.00000000       0.00000000       0.00000000
W        1.58033714       1.58033714       1.58033714      -0.00000000      -0.00000000      -0.00000000
2
Lattice="3.188 0.0 0.0 0.0 3.188 0.0 0.0 0.0 3.188" Properties=species:S:1:pos:R:3:forces:R:3 energy_per_atom=-12.746553957255843 energy=-24.770213559210287 free_energy=-24.770213559210287 stress="0.21228139280477606 1.5269765041325775e-17 2.651870359836976e-18 1.5269765041325775e-17 0.2122813928047754 6.907086817744981e-19 2.651870359836976e-18 6.907086817744981e-19 0.21228139280477545" pbc="T T T"
W        0.00000000       0.00000000       0.00000000      -0.00000000       0.00000000       0.00000000
W        1.59400000       1.59400000       1.59400000      -0.00000000      -0.00000000      -0.00000000
2
Lattice="3.2153257142857146 0.0 0.0 0.0 3.2153257142857146 0.0 0.0 0.0 3.2153257142857146" Properties=species:S:1:pos:R:3:forces:R:3 energy_per_atom=-12.738605723373439 energy=-24.770213559210287 free_energy=-24.770213559210287 stress="0.21228139280477606 1.5269765041325775e-17 2.651870359836976e-18 1.5269765041325775e-17 0.2122813928047754 6.907086817744981e-19 2.651870359836976e-18 6.907086817744981e-19 0.21228139280477545" pbc="T T T"
W        0.00000000       0.00000000       0.00000000      -0.00000000       0.00000000       0.00000000
W        1.60766286       1.60766286       1.60766286      -0.00000000      -0.00000000      -0.00000000
2
Lattice="3.2426514285714285 0.0 0.0 0.0 3.2426514285714285 0.0 0.0 0.0 3.2426514285714285" Properties=species:S:1:pos:R:3:forces:R:3 energy_per_atom=-12.715060584058836 energy=-24.770213559210287 free_energy=-24.770213559210287 stress="0.21228139280477606 1.5269765041325775e-17 2.651870359836976e-18 1.5269765041325775e-17 0.2122813928047754 6.907086817744981e-19 2.651870359836976e-18 6.907086817744981e-19 0.21228139280477545" pbc="T T T"
W        0.00000000       0.00000000       0.00000000      -0.00000000       0.00000000       0.00000000
W        1.62132571       1.62132571       1.62132571      -0.00000000      -0.00000000      -0.00000000
2
Lattice="3.2699771428571434 0.0 0.0 0.0 3.2699771428571434 0.0 0.0 0.0 3.2699771428571434" Properties=species:S:1:pos:R:3:forces:R:3 energy_per_atom=-12.676798202098523 energy=-24.770213559210287 free_energy=-24.770213559210287 stress="0.21228139280477606 1.5269765041325775e-17 2.651870359836976e-18 1.5269765041325775e-17 0.2122813928047754 6.907086817744981e-19 2.651870359836976e-18 6.907086817744981e-19 0.21228139280477545" pbc="T T T"
W        0.00000000       0.00000000       0.00000000      -0.00000000       0.00000000       0.00000000
W        1.63498857       1.63498857       1.63498857      -0.00000000      -0.00000000      -0.00000000
2
Lattice="3.2973028571428573 0.0 0.0 0.0 3.2973028571428573 0.0 0.0 0.0 3.2973028571428573" Properties=species:S:1:pos:R:3:forces:R:3 energy_per_atom=-12.62432335238044 energy=-24.770213559210287 free_energy=-24.770213559210287 stress="0.21228139280477606 1.5269765041325775e-17 2.651870359836976e-18 1.5269765041325775e-17 0.2122813928047754 6.907086817744981e-19 2.651870359836976e-18 6.907086817744981e-19 0.21228139280477545" pbc="T T T"
W        0.00000000       0.00000000       0.00000000      -0.00000000       0.00000000       0.00000000
W        1.64865143       1.64865143       1.64865143      -0.00000000      -0.00000000      -0.00000000
2
Lattice="3.3246285714285713 0.0 0.0 0.0 3.3246285714285713 0.0 0.0 0.0 3.3246285714285713" Properties=species:S:1:pos:R:3:forces:R:3 energy_per_atom=-12.557973472437082 energy=-24.770213559210287 free_energy=-24.770213559210287 stress="0.21228139280477606 1.5269765041325775e-17 2.651870359836976e-18 1.5269765041325775e-17 0.2122813928047754 6.907086817744981e-19 2.651870359836976e-18 6.907086817744981e-19 0.21228139280477545" pbc="T T T"
W        0.00000000       0.00000000       0.00000000      -0.00000000       0.00000000       0.00000000
W        1.66231429       1.66231429       1.66231429      -0.00000000      -0.00000000      -0.00000000
2
Lattice="3.3519542857142857 0.0 0.0 0.0 3.3519542857142857 0.0 0.0 0.0 3.3519542857142857" Properties=species:S:1:pos:R:3:forces:R:3 energy_per_atom=-12.478090172019554 energy=-24.770213559210287 free_energy=-24.770213559210287 stress="0.21228139280477606 1.5269765041325775e-17 2.651870359836976e-18 1.5269765041325775e-17 0.2122813928047754 6.907086817744981e-19 2.651870359836976e-18 6.907086817744981e-19 0.21228139280477545" pbc="T T T"
W        0.00000000       0.00000000       0.00000000      -0.00000000       0.00000000       0.00000000
W        1.67597714       1.67597714       1.67597714      -0.00000000      -0.00000000      -0.00000000
249
Lattice="14.925557087285032 0.0 0.0 0.0 14.925557087285032 0.0 0.0 0.0 14.925557087285032" Properties=species:S:1:pos:R:3:forces:R:3 energy_per_atom=-12.206537224888464 stress_voigt="-0.3732149374527387 -0.3732149374527368 -0.37321493745273676 -9.339993890402944e-19 -1.329255345647223e-17 -3.633721911883992e-19" meta="_JSON {\"supercell\": \"5x5x5\", \"volume_per_atom_initial\": 13.3, \"type\": \"vacancy\", \"relaxed\": true}" energy=-3039.4277689972278 pbc="T T T"
W        0.00000000       0.00000000       0.00000000      -0.00000000      -0.00000000      -0.00000000
W        1.49343530       1.49343530       1.49343530       0.02481817       0.02481817       0.02481817
W        0.00000000       0.00000000       2.98326783      -0.00000000      -0.00000000       0.01595411
W        1.49375877       1.49375877       4.47632741       0.01197973       0.01197973       0.01661188
W       -0.00000000       0.00000000       5.96977019      -0.00000000      -0.00000000       0.01408427
W        1.49473325       1.49473325       7.46277854       0.00911478       0.00911478       0.00000000
W       -0.00000000      -0.00000000       8.95578689      -0.00000000      -0.00000000      -0.01408427
W        1.49375877       1.49375877      10.44922968       0.01197973       0.01197973      -0.01661188
W        0.00000000       0.00000000      11.94228925      -0.00000000      -0.00000000      -0.01595411
W        1.49343530       1.49343530      13.43212179       0.02481817       0.02481817      -0.02481817
W        0.00000000       2.98326783       0.00000000      -0.00000000       0.01595411      -0.00000000
W        1.49375877       4.47632741       1.49375877       0.01197973       0.01661188       0.01197973
W        0.00000000       2.98433982       2.98433982      -0.00000000       0.00894608       0.00894608
W        1.49599259       4.47690289       4.47690289      -0.01580299      -0.00825814      -0.00825814
W       -0.00000000       2.98578635       5.97020562      -0.00000000      -0.00431340       0.01191133
W        1.49725334       4.47820379       7.46277854      -0.01036343      -0.00335681       0.00000000
W       -0.00000000       2.98578635       8.95535147      -0.00000000      -0.00431340      -0.01191133
W        1.49599259       4.47690289      10.44865419      -0.01580299      -0.00825814       0.00825814
W       -0.00000000       2.98433982      11.94121727      -0.00000000       0.00894608      -0.00894608
W        1.49375877       4.47632741      13.43179831       0.01197973       0.01661188      -0.01197973
W        0.00000000       5.96977019       0.00000000      -0.00000000       0.01408427      -0.00000000
W        1.49473325       7.46277854       1.49473325       0.00911478      -0.00000000       0.00911478
W       -0.00000000       5.97020562       2.98578635      -0.00000000       0.01191133      -0.00431340
W        1.49725334       7.46277854       4.47820379      -0.01036343       0.00000000      -0.00335681
W       -0.00000000       5.97093042       5.97093042      -0.00000000      -0.01226628      -0.01226628
W        1.49431013       7.46277854       7.46277854      -0.02861895       0.00000000      -0.00000000
W       -0.00000000       5.97093042       8.95462667      -0.00000000      -0.01226628       0.01226628
W        1.49725334       7.46277854      10.44735330      -0.01036343       0.00000000       0.00335681
W       -0.00000000       5.97020562      11.93977074       0.00000000       0.01191133       0.00431340
W        1.49473325       7.46277854      13.43082384       0.00911478       0.00000000      -0.00911478
W       -0.00000000       8.95578689      -0.00000000      -0.00000000      -0.01408427      -0.00000000
W        1.49375877      10.44922968       1.49375877       0.01197973      -0.01661188       0.01197973
W       -0.00000000       8.95535147       2.98578635      -0.00000000      -0.01191133      -0.00431340
W        1.49599259      10.44865419       4.47690289      -0.01580299       0.00825814      -0.00825814
W       -0.00000000       8.95462667       5.97093042       0.00000000       0.01226628      -0.01226628
W        1.49725334      10.44735330       7.46277854      -0.01036343       0.00335681      -0.00000000
W       -0.00000000       8.95462667       8.95462667      -0.00000000       0.01226628       0.01226628
W        1.49599259      10.44865419      10.44865419      -0.01580299       0.00825814       0.00825814
W       -0.00000000       8.95535147      11.93977074      -0.00000000      -0.01191133       0.00431340
W        1.49375877      10.44922968      13.43179831       0.01197973      -0.01661188      -0.01197973
W        0.00000000      11.94228925       0.00000000      -0.00000000      -0.01595411      -0.00000000
W        1.49343530      13.43212179       1.49343530       0.02481817      -0.02481817       0.02481817
W       -0.00000000      11.94121727       2.98433982       0.00000000      -0.00894608       0.00894608
W        1.49375877      13.43179831       4.47632741       0.01197973      -0.01197973       0.01661188
W       -0.00000000      11.93977074       5.97020562      -0.00000000       0.00431340       0.01191133
W        1.49473325      13.43082384       7.46277854       0.00911478      -0.00911478       0.00000000
W       -0.00000000      11.93977074       8.95535147      -0.00000000       0.00431340      -0.01191133
W        1.49375877      13.43179831      10.44922968       0.01197973      -0.01197973      -0.01661188
W       -0.00000000      11.94121727      11.94121727      -0.00000000      -0.00894608      -0.00894608
W        1.49343530      13.43212179      13.43212179       0.02481817      -0.02481817      -0.02481817
W        2.98326783       0.00000000       0.00000000       0.01595411      -0.00000000      -0.00000000
W        4.47632741       1.49375877       1.49375877       0.01661188       0.01197973       0.01197973
W        2.98433982       0.00000000       2.98433982       0.00894608      -0.00000000       0.00894608
W        4.47690289       1.49599259       4.47690289      -0.00825814      -0.01580299      -0.00825814
W        2.98578635      -0.00000000       5.97020562      -0.00431340       0.00000000       0.01191133
W        4.47820379       1.49725334       7.46277854      -0.00335681      -0.01036343       0.00000000
W        2.98578635      -0.00000000       8.95535147      -0.00431340      -0.00000000      -0.01191133
W        4.47690289       1.49599259      10.44865419      -0.00825814      -0.01580299       0.00825814
W        2.98433982       0.00000000      11.94121727       0.00894608      -0.00000000      -0.00894608
W        4.47632741       1.49375877      13.43179831       0.01661188       0.01197973      -0.01197973
W        2.98433982       2.98433982      -0.00000000       0.00894608       0.00894608      -0.00000000
W        4.47690289       4.47690289       1.49599259      -0.00825814      -0.00825814      -0.01580299
W        2.99461085       2.99461085       2.99461085       0.03718413       0.03718413       0.03718413
W        4.51910704       4.51910704       4.51910704       0.00535243       0.00535243       0.00535243
W        2.99365755       2.99365755       5.96896618       0.01038444       0.01038444       0.02161047
W        4.50644787       4.50644787       7.46277854       0.02349748       0.02349748       0.00000000
W        2.99365755       2.99365755       8.95659091       0.01038444       0.01038444      -0.02161047
W        4.51910704       4.51910704      10.40645005       0.00535243       0.00535243      -0.00535243
W        2.99461085       2.99461085      11.93094623       0.03718413       0.03718413      -0.03718413
W        4.47690289       4.47690289      13.42956450      -0.00825814      -0.00825814       0.01580299
W        2.98578635       5.97020562      -0.00000000      -0.00431340       0.01191133      -0.00000000
W        4.47820379       7.46277854       1.49725334      -0.00335681       0.00000000      -0.01036343
W        2.99365755       5.96896618       2.99365755       0.01038444       0.02161047       0.01038444
W        4.50644787       7.46277854       4.50644787       0.02349748       0.00000000       0.02349748
W        2.99336978       5.96227502       5.96227502      -0.08542576       0.00313437       0.00313437
W        4.41511855       7.46277854       7.46277854       0.09331171       0.00000000       0.00000000
W        2.99336978       5.96227502       8.96328206      -0.08542576       0.00313437      -0.00313437
W        4.50644787       7.46277854      10.41910922       0.02349748      -0.00000000      -0.02349748
W        2.99365755       5.96896618      11.93189954       0.01038444       0.02161047      -0.01038444
W        4.47820379       7.46277854      13.42830374      -0.00335681       0.00000000       0.01036343
W        2.98578635       8.95535147      -0.00000000      -0.00431340      -0.01191133      -0.00000000
W        4.47690289      10.44865419       1.49599259      -0.00825814       0.00825814      -0.01580299
W        2.99365755       8.95659091       2.99365755       0.01038444      -0.02161047       0.01038444
W        4.51910704      10.40645005       4.51910704       0.00535243      -0.00535243       0.00535243
W        2.99336978       8.96328206       5.96227502      -0.08542576      -0.00313437       0.00313437
W        4.50644787      10.41910922       7.46277854       0.02349748      -0.02349748      -0.00000000
W        2.99336978       8.96328206       8.96328206      -0.08542576      -0.00313437      -0.00313437
W        4.51910704      10.40645005      10.40645005       0.00535243      -0.00535243      -0.00535243
W        2.99365755       8.95659091      11.93189954       0.01038444      -0.02161047      -0.01038444
W        4.47690289      10.44865419      13.42956450      -0.00825814       0.00825814       0.01580299
W        2.98433982      11.94121727       0.00000000       0.00894608      -0.00894608      -0.00000000
W        4.47632741      13.43179831       1.49375877       0.01661188      -0.01197973       0.01197973
W        2.99461085      11.93094623       2.99461085       0.03718413      -0.03718413       0.03718413
W        4.47690289      13.42956450       4.47690289      -0.00825814       0.01580299      -0.00825814
W        2.99365755      11.93189954       5.96896618       0.01038444      -0.01038444       0.02161047
W        4.47820379      13.42830374       7.46277854      -0.00335681       0.01036343       0.00000000
W        2.99365755      11.93189954       8.95659091       0.01038444      -0.01038444      -0.02161047
W        4.47690289      13.42956450      10.44865419      -0.00825814       0.01580299       0.00825814
W        2.99461085      11.93094623      11.93094623       0.03718413      -0.03718413      -0.03718413
W        4.47632741      13.43179831      13.43179831       0.01661188      -0.01197973      -0.01197973
W        5.96977019      -0.00000000      -0.00000000       0.01408427      -0.00000000      -0.00000000
W        7.46277854       1.49473325       1.49473325      -0.00000000       0.00911478       0.00911478
W        5.97020562      -0.00000000       2.98578635       0.01191133      -0.00000000      -0.00431340
W        7.46277854       1.49725334       4.47820379       0.00000000      -0.01036343      -0.00335681
W        5.97093042      -0.00000000       5.97093042      -0.01226628      -0.00000000      -0.01226628
W        7.46277854       1.49431013       7.46277854       0.00000000      -0.02861895      -0.00000000
W        5.97093042      -0.00000000       8.95462667      -0.01226628      -0.00000000       0.01226628
W        7.46277854       1.49725334      10.44735330      -0.00000000      -0.01036343       0.00335681