4
Lattice="3.8446000000000002 0.0 0.0 0.0 3.8446000000000002 0.0 0.0 0.0 3.8446000000000002" Properties=species:S:1:pos:R:3:forces:R:3 energy_per_atom=-10.347276605686783 energy=-40.26418708402362 free_energy=-40.26418708402362 stress="0.20733292476536902 -1.4880503706261801e-18 1.1839547177554039e-18 -1.4880503706261801e-18 0.20733292476536902 -3.4754334589409486e-19 1.1839547177554039e-18 -3.4754334589409486e-19 0.20733292476536902" pbc="T T T"
Mo       0.00000000       0.00000000       0.00000000       0.00000000       0.00000000       0.00000000
Mo       0.00000000       1.92230000       1.92230000      -0.00000000      -0.00000000       0.00000000
Mo       1.92230000       0.00000000       1.92230000       0.00000000      -0.00000000       0.00000000
Mo       1.92230000       1.92230000       0.00000000      -0.00000000       0.00000000      -0.00000000
4
Lattice="3.8796571428571425 0.0 0.0 0.0 3.8796571428571425 0.0 0.0 0.0 3.8796571428571425" Properties=species:S:1:pos:R:3:forces:R:3 energy_per_atom=-10.431992916181265 energy=-40.26418708402362 free_energy=-40.26418708402362 stress="0.20733292476536902 -1.4880503706261801e-18 1.1839547177554039e-18 -1.4880503706261801e-18 0.20733292476536902 -3.4754334589409486e-19 1.1839547177554039e-18 -3.4754334589409486e-19 0.20733292476536902" pbc="T T T"
Mo       0.00000000       0.00000000       0.00000000       0.00000000       0.00000000       0.00000000
Mo       0.00000000       1.93982857       1.93982857      -0.00000000      -0.00000000       0.00000000
Mo       1.93982857       0.00000000       1.93982857       0.00000000      -0.00000000       0.00000000
Mo       1.93982857       1.93982857       0.00000000      -0.00000000       0.00000000      -0.00000000
4
Lattice="3.914714285714285 0.0 0.0 0.0 3.914714285714285 0.0 0.0 0.0 3.914714285714285" Properties=species:S:1:pos:R:3:forces:R:3 energy_per_atom=-10.496611971029932 energy=-40.26418708402362 free_energy=-40.26418708402362 stress="0.20733292476536902 -1.4880503706261801e-18 1.1839547177554039e-18 -1.4880503706261801e-18 0.20733292476536902 -3.4754334589409486e-19 1.1839547177554039e-18 -3.4754334589409486e-19 0.20733292476536902" pbc="T T T"
Mo       0.00000000       0.00000000       0.00000000       0.00000000       0.00000000       0.00000000
Mo       0.00000000       1.95735714       1.95735714      -0.00000000      -0.00000000       0.00000000
Mo       1.95735714       0.00000000       1.95735714       0.00000000      -0.00000000       0.00000000
Mo       1.95735714       1.95735714       0.00000000      -0.00000000       0.00000000      -0.00000000
4
Lattice="3.949771428571429 0.0 0.0 0.0 3.949771428571429 0.0 0.0 0.0 3.949771428571429" Properties=species:S:1:pos:R:3:forces:R:3 energy_per_atom=-10.541939351218506 energy=-40.26418708402362 free_energy=-40.26418708402362 stress="0.20733292476536902 -1.4880503706261801e-18 1.1839547177554039e-18 -1.4880503706261801e-18 0.20733292476536902 -3.4754334589409486e-19 1.1839547177554039e-18 -3.4754334589409486e-19 0.20733292476536902" pbc="T T T"
Mo       0.00000000       0.00000000       0.00000000       0.00000000       0.00000000       0.00000000
Mo       0.00000000       1.97488571       1.97488571      -0.00000000      -0.00000000       0.00000000
Mo       1.97488571       0.00000000       1.97488571       0.00000000      -0.00000000       0.00000000
Mo       1.97488571       1.97488571       0.00000000      -0.00000000       0.00000000      -0.00000000
4
Lattice="3.9848285714285723 0.0 0.0 0.0 3.9848285714285723 0.0 0.0 0.0 3.9848285714285723" Properties=species:S:1:pos:R:3:forces:R:3 energy_per_atom=-10.568869627450617 energy=-40.26418708402362 free_energy=-40.26418708402362 stress="0.20733292476536902 -1.4880503706261801e-18 1.1839547177554039e-18 -1.4880503706261801e-18 0.20733292476536902 -3.4754334589409486e-19 1.1839547177554039e-18 -3.4754334589409486e-19 0.20733292476536902" pbc="T T T"
Mo       0.00000000       0.00000000       0.00000000       0.00000000       0.00000000       0.00000000
Mo       0.00000000       1.99241429       1.99241429      -0.00000000      -0.00000000       0.00000000
Mo       1.99241429       0.00000000       1.99241429       0.00000000      -0.00000000       0.00000000
Mo       1.99241429       1.99241429       0.00000000      -0.00000000       0.00000000      -0.00000000
4
Lattice="4.0198857142857145 0.0 0.0 0.0 4.0198857142857145 0.0 0.0 0.0 4.0198857142857145" Properties=species:S:1:pos:R:3:forces:R:3 energy_per_atom=-10.578397877609504 energy=-40.26418708402362 free_energy=-40.26418708402362 stress="0.20733292476536902 -1.4880503706261801e-18 1.1839547177554039e-18 -1.4880503706261801e-18 0.20733292476536902 -3.4754334589409486e-19 1.1839547177554039e-18 -3.4754334589409486e-19 0.20733292476536902" pbc="T T T"
Mo       0.00000000       0.00000000       0.00000000       0.00000000       0.00000000       0.00000000
Mo       0.00000000       2.00994286       2.00994286      -0.00000000      -0.00000000       0.00000000
Mo       2.00994286       0.00000000       2.00994286       0.00000000      -0.00000000       0.00000000
Mo       2.00994286       2.00994286       0.00000000      -0.00000000       0.00000000      -0.00000000
4
Lattice="4.054942857142856 0.0 0.0 0.0 4.054942857142856 0.0 0.0 0.0 4.054942857142856" Properties=species:S:1:pos:R:3:forces:R:3 energy_per_atom=-10.571624325147354 energy=-40.26418708402362 free_energy=-40.26418708402362 stress="0.20733292476536902 -1.4880503706261801e-18 1.1839547177554039e-18 -1.4880503706261801e-18 0.20733292476536902 -3.4754334589409486e-19 1.1839547177554039e-18 -3.4754334589409486e-19 0.20733292476536902" pbc="T T T"
Mo       0.00000000       0.00000000       0.00000000       0.00000000       0.00000000       0.00000000
Mo       0.00000000       2.02747143       2.02747143      -0.00000000      -0.00000000       0.00000000
Mo       2.02747143       0.00000000       2.02747143       0.00000000      -0.00000000       0.00000000
Mo       2.02747143       2.02747143       0.00000000      -0.00000000       0.00000000      -0.00000000
4
Lattice="4.125057142857143 0.0 0.0 0.0 4.125057142857143 0.0 0.0 0.0 4.125057142857143" Properties=species:S:1:pos:R:3:forces:R:3 energy_per_atom=-10.513958629536916 energy=-40.26418708402362 free_energy=-40.26418708402362 stress="0.20733292476536902 -1.4880503706261801e-18 1.1839547177554039e-18 -1.4880503706261801e-18 0.20733292476536902 -3.4754334589409486e-19 1.1839547177554039e-18 -3.4754334589409486e-19 0.20733292476536902" pbc="T T T"
Mo       0.00000000       0.00000000       0.00000000       0.00000000       0.00000000       0.00000000
Mo       0.00000000       2.06252857       2.06252857      -0.00000000      -0.00000000       0.00000000
Mo       2.06252857       0.00000000       2.06252857       0.00000000      -0.00000000       0.00000000
Mo       2.06252857       2.06252857       0.00000000      -0.00000000       0.00000000      -0.00000000
4
Lattice="4.160114285714284 0.0 0.0 0.0 4.160114285714284 0.0 0.0 0.0 4.160114285714284" Properties=species:S:1:pos:R:3:forces:R:3 energy_per_atom=-10.465484602148686 energy=-40.26418708402362 free_energy=-40.26418708402362 stress="0.20733292476536902 -1.4880503706261801e-18 1.1839547177554039e-18 -1.4880503706261801e-18 0.20733292476536902 -3.4754334589409486e-19 1.1839547177554039e-18 -3.4754334589409486e-19 0.20733292476536902" pbc="T T T"
Mo       0.00000000       0.00000000       0.00000000       0.00000000       0.00000000       0.00000000
Mo       0.00000000       2.08005714       2.08005714      -0.00000000      -0.00000000       0.00000000
Mo       2.08005714       0.00000000       2.08005714       0.00000000      -0.00000000       0.00000000
Mo       2.08005714       2.08005714       0.00000000      -0.00000000       0.00000000      -0.00000000
4
Lattice="4.195171428571429 0.0 0.0 0.0 4.195171428571429 0.0 0.0 0.0 4.195171428571429" Properties=species:S:1:pos:R:3:forces:R:3 energy_per_atom=-10.40540957888272 energy=-40.26418708402362 free_energy=-40.26418708402362 stress="0.20733292476536902 -1.4880503706261801e-18 1.1839547177554039e-18 -1.4880503706261801e-18 0.20733292476536902 -3.4754334589409486e-19 1.1839547177554039e-18 -3.4754334589409486e-19 0.20733292476536902" pbc="T T T"
Mo       0.00000000       0.00000000       0.00000000       0.00000000       0.00000000       0.00000000
Mo       0.00000000       2.09758571       2.09758571      -0.00000000      -0.00000000       0.00000000
Mo       2.09758571       0.00000000       2.09758571       0.00000000      -0.00000000       0.00000000
Mo       2.09758571       2.09758571       0.00000000      -0.00000000       0.00000000      -0.00000000
4
Lattice="4.230228571428571 0.0 0.0 0.0 4.230228571428571 0.0 0.0 0.0 4.230228571428571" Properties=species:S:1:pos:R:3:forces:R:3 energy_per_atom=-10.334687588034816 energy=-40.26418708402362 free_energy=-40.26418708402362 stress="0.20733292476536902 -1.4880503706261801e-18 1.1839547177554039e-18 -1.4880503706261801e-18 0.20733292476536902 -3.4754334589409486e-19 1.1839547177554039e-18 -3.4754334589409486e-19 0.20733292476536902" pbc="T T T"
Mo       0.00000000       0.00000000       0.00000000       0.00000000       0.00000000       0.00000000
Mo       0.00000000       2.11511429       2.11511429      -0.00000000      -0.00000000       0.00000000
Mo       2.11511429       0.00000000       2.11511429       0.00000000      -0.00000000       0.00000000
Mo       2.11511429       2.11511429       0.00000000      -0.00000000       0.00000000      -0.00000000
