4
Lattice="3.9103999999999997 0.0 0.0 0.0 3.9103999999999997 0.0 0.0 0.0 3.9103999999999997" Properties=species:S:1:pos:R:3:forces:R:3 energy_per_atom=-9.52430821663311 energy=-39.276682861854034 free_energy=-39.276682861854034 stress="0.10216465234394433 1.4751009989597735e-18 1.538937432738038e-18 1.4751009989597735e-18 0.1021646523439443 -1.087292751391005e-18 1.538937432738038e-18 -1.087292751391005e-18 0.10216465234394434" pbc="T T T"
Nb       0.00000000       0.00000000       0.00000000       0.00000000       0.00000000       0.00000000
Nb       0.00000000       1.95520000       1.95520000       0.00000000       0.00000000      -0.00000000
Nb       1.95520000       0.00000000       1.95520000       0.00000000      -0.00000000      -0.00000000
Nb       1.95520000       1.95520000       0.00000000      -0.00000000      -0.00000000       0.00000000
4
Lattice="3.946057142857143 0.0 0.0 0.0 3.946057142857143 0.0 0.0 0.0 3.946057142857143" Properties=species:S:1:pos:R:3:forces:R:3 energy_per_atom=-9.64638314119795 energy=-39.276682861854034 free_energy=-39.276682861854034 stress="0.10216465234394433 1.4751009989597735e-18 1.538937432738038e-18 1.4751009989597735e-18 0.1021646523439443 -1.087292751391005e-18 1.538937432738038e-18 -1.087292751391005e-18 0.10216465234394434" pbc="T T T"
Nb       0.00000000       0.00000000       0.00000000       0.00000000       0.00000000       0.00000000
Nb       0.00000000       1.97302857       1.97302857       0.00000000       0.00000000      -0.00000000
Nb       1.97302857       0.00000000       1.97302857       0.00000000      -0.00000000      -0.00000000
Nb       1.97302857       1.97302857       0.00000000      -0.00000000      -0.00000000       0.00000000
4
Lattice="3.9817142857142858 0.0 0.0 0.0 3.9817142857142858 0.0 0.0 0.0 3.9817142857142858" Properties=species:S:1:pos:R:3:forces:R:3 energy_per_atom=-9.745087162497532 energy=-39.276682861854034 free_energy=-39.276682861854034 stress="0.10216465234394433 1.4751009989597735e-18 1.538937432738038e-18 1.4751009989597735e-18 0.1021646523439443 -1.087292751391005e-18 1.538937432738038e-18 -1.087292751391005e-18 0.10216465234394434" pbc="T T T"
Nb       0.00000000       0.00000000       0.00000000       0.00000000       0.00000000       0.00000000
Nb       0.00000000       1.99085714       1.99085714       0.00000000       0.00000000      -0.00000000
Nb       1.99085714       0.00000000       1.99085714       0.00000000      -0.00000000      -0.00000000
Nb       1.99085714       1.99085714       0.00000000      -0.00000000      -0.00000000       0.00000000
4
Lattice="4.017371428571429 0.0 0.0 0.0 4.017371428571429 0.0 0.0 0.0 4.017371428571429" Properties=species:S:1:pos:R:3:forces:R:3 energy_per_atom=-9.823064202333192 energy=-39.276682861854034 free_energy=-39.276682861854034 stress="0.10216465234394433 1.4751009989597735e-18 1.538937432738038e-18 1.4751009989597735e-18 0.1021646523439443 -1.087292751391005e-18 1.538937432738038e-18 -1.087292751391005e-18 0.10216465234394434" pbc="T T T"
Nb       0.00000000       0.00000000       0.00000000       0.00000000       0.00000000       0.00000000
Nb       0.00000000       2.00868571       2.00868571       0.00000000       0.00000000      -0.00000000
Nb       2.00868571       0.00000000       2.00868571       0.00000000      -0.00000000      -0.00000000
Nb       2.00868571       2.00868571       0.00000000      -0.00000000      -0.00000000       0.00000000
4
Lattice="4.053028571428571 0.0 0.0 0.0 4.053028571428571 0.0 0.0 0.0 4.053028571428571" Properties=species:S:1:pos:R:3:forces:R:3 energy_per_atom=-9.882843706570402 energy=-39.276682861854034 free_energy=-39.276682861854034 stress="0.10216465234394433 1.4751009989597735e-18 1.538937432738038e-18 1.4751009989597735e-18 0.1021646523439443 -1.087292751391005e-18 1.538937432738038e-18 -1.087292751391005e-18 0.10216465234394434" pbc="T T T"
Nb       0.00000000       0.00000000       0.00000000       0.00000000       0.00000000       0.00000000
Nb       0.00000000       2.02651429       2.02651429       0.00000000       0.00000000      -0.00000000
Nb       2.02651429       0.00000000       2.02651429       0.00000000      -0.00000000      -0.00000000
Nb       2.02651429       2.02651429       0.00000000      -0.00000000      -0.00000000       0.00000000
4
Lattice="4.088685714285714 0.0 0.0 0.0 4.088685714285714 0.0 0.0 0.0 4.088685714285714" Properties=species:S:1:pos:R:3:forces:R:3 energy_per_atom=-9.926707321703365 energy=-39.276682861854034 free_energy=-39.276682861854034 stress="0.10216465234394433 1.4751009989597735e-18 1.538937432738038e-18 1.4751009989597735e-18 0.1021646523439443 -1.087292751391005e-18 1.538937432738038e-18 -1.087292751391005e-18 0.10216465234394434" pbc="T T T"
Nb       0.00000000       0.00000000       0.00000000       0.00000000       0.00000000       0.00000000
Nb       0.00000000       2.04434286       2.04434286       0.00000000       0.00000000      -0.00000000
Nb       2.04434286       0.00000000       2.04434286       0.00000000      -0.00000000      -0.00000000
Nb       2.04434286       2.04434286       0.00000000      -0.00000000      -0.00000000       0.00000000
4
Lattice="4.124342857142857 0.0 0.0 0.0 4.124342857142857 0.0 0.0 0.0 4.124342857142857" Properties=species:S:1:pos:R:3:forces:R:3 energy_per_atom=-9.956609222279056 energy=-39.276682861854034 free_energy=-39.276682861854034 stress="0.10216465234394433 1.4751009989597735e-18 1.538937432738038e-18 1.4751009989597735e-18 0.1021646523439443 -1.087292751391005e-18 1.538937432738038e-18 -1.087292751391005e-18 0.10216465234394434" pbc="T T T"
Nb       0.00000000       0.00000000       0.00000000       0.00000000       0.00000000       0.00000000
Nb       0.00000000       2.06217143       2.06217143       0.00000000       0.00000000      -0.00000000
Nb       2.06217143       0.00000000       2.06217143       0.00000000      -0.00000000      -0.00000000
Nb       2.06217143       2.06217143       0.00000000      -0.00000000      -0.00000000       0.00000000
4
Lattice="4.16 0.0 0.0 0.0 4.16 0.0 0.0 0.0 4.16" Properties=species:S:1:pos:R:3:forces:R:3 energy_per_atom=-9.97414022960072 energy=-39.276682861854034 free_energy=-39.276682861854034 stress="0.10216465234394433 1.4751009989597735e-18 1.538937432738038e-18 1.4751009989597735e-18 0.1021646523439443 -1.087292751391005e-18 1.538937432738038e-18 -1.087292751391005e-18 0.10216465234394434" pbc="T T T"
Nb       0.00000000       0.00000000       0.00000000       0.00000000       0.00000000       0.00000000
Nb       0.00000000       2.08000000       2.08000000       0.00000000       0.00000000      -0.00000000
Nb       2.08000000       0.00000000       2.08000000       0.00000000      -0.00000000      -0.00000000
Nb       2.08000000       2.08000000       0.00000000      -0.00000000      -0.00000000       0.00000000
4
Lattice="4.195657142857143 0.0 0.0 0.0 4.195657142857143 0.0 0.0 0.0 4.195657142857143" Properties=species:S:1:pos:R:3:forces:R:3 energy_per_atom=-9.980526700481494 energy=-39.276682861854034 free_energy=-39.276682861854034 stress="0.10216465234394433 1.4751009989597735e-18 1.538937432738038e-18 1.4751009989597735e-18 0.1021646523439443 -1.087292751391005e-18 1.538937432738038e-18 -1.087292751391005e-18 0.10216465234394434" pbc="T T T"
Nb       0.00000000       0.00000000       0.00000000       0.00000000       0.00000000       0.00000000
Nb       0.00000000       2.09782857       2.09782857       0.00000000       0.00000000      -0.00000000
Nb       2.09782857       0.00000000       2.09782857       0.00000000      -0.00000000      -0.00000000
Nb       2.09782857       2.09782857       0.00000000      -0.00000000      -0.00000000       0.00000000
4
Lattice="4.2313142857142845 0.0 0.0 0.0 4.2313142857142845 0.0 0.0 0.0 4.2313142857142845" Properties=species:S:1:pos:R:3:forces:R:3 energy_per_atom=-9.976657989145682 energy=-39.276682861854034 free_energy=-39.276682861854034 stress="0.10216465234394433 1.4751009989597735e-18 1.538937432738038e-18 1.4751009989597735e-18 0.1021646523439443 -1.087292751391005e-18 1.538937432738038e-18 -1.087292751391005e-18 0.10216465234394434" pbc="T T T"
Nb       0.00000000       0.00000000       0.00000000       0.00000000       0.00000000       0.00000000
Nb       0.00000000       2.11565714       2.11565714       0.00000000       0.00000000      -0.00000000
Nb       2.11565714       0.00000000       2.11565714       0.00000000      -0.00000000      -0.00000000
Nb       2.11565714       2.11565714       0.00000000      -0.00000000      -0.00000000       0.00000000
4
Lattice="4.266971428571429 0.0 0.0 0.0 4.266971428571429 0.0 0.0 0.0 4.266971428571429" Properties=species:S:1:pos:R:3:forces:R:3 energy_per_atom=-9.963139497939299 energy=-39.276682861854034 free_energy=-39.276682861854034 stress="0.10216465234394433 1.4751009989597735e-18 1.538937432738038e-18 1.4751009989597735e-18 0.1021646523439443 -1.087292751391005e-18 1.538937432738038e-18 -1.087292751391005e-18 0.10216465234394434" pbc="T T T"
Nb       0.00000000       0.00000000       0.00000000       0.00000000       0.00000000       0.00000000
Nb       0.00000000       2.13348571       2.13348571       0.00000000       0.00000000      -0.00000000
Nb       2.13348571       0.00000000       2.13348571       0.00000000      -0.00000000      -0.00000000
Nb       2.13348571       2.13348571       0.00000000      -0.00000000      -0.00000000       0.00000000
4
Lattice="4.30262857142857 0.0 0.0 0.0 4.30262857142857 0.0 0.0 0.0 4.30262857142857" Properties=species:S:1:pos:R:3:forces:R:3 energy_per_atom=-9.940369561242104 energy=-39.276682861854034 free_energy=-39.276682861854034 stress="0.10216465234394433 1.4751009989597735e-18 1.538937432738038e-18 1.4751009989597735e-18 0.1021646523439443 -1.087292751391005e-18 1.538937432738038e-18 -1.087292751391005e-18 0.10216465234394434" pbc="T T T"
Nb       0.00000000       0.00000000       0.00000000       0.00000000       0.00000000       0.00000000
Nb       0.00000000       2.15131429       2.15131429       0.00000000       0.00000000      -0.00000000
Nb       2.15131429       0.00000000       2.15131429       0.00000000      -0.00000000      -0.00000000
Nb       2.15131429       2.15131429       0.00000000      -0.00000000      -0.00000000       0.00000000
4
Lattice="4.338285714285715 0.0 0.0 0.0 4.338285714285715 0.0 0.0 0.0 4.338285714285715" Properties=species:S:1:pos:R:3:forces:R:3 energy_per_atom=-9.908626315065147 energy=-39.276682861854034 free_energy=-39.276682861854034 stress="0.10216465234394433 1.4751009989597735e-18 1.538937432738038e-18 1.4751009989597735e-18 0.1021646523439443 -1.087292751391005e-18 1.538937432738038e-18 -1.087292751391005e-18 0.10216465234394434" pbc="T T T"
Nb       0.00000000       0.00000000       0.00000000       0.00000000       0.00000000       0.00000000
Nb       0.00000000       2.16914286       2.16914286       0.00000000       0.00000000      -0.00000000
Nb       2.16914286       0.00000000       2.16914286       0.00000000      -0.00000000      -0.00000000
Nb       2.16914286       2.16914286       0.00000000      -0.00000000      -0.00000000       0.00000000
4
Lattice="4.373942857142857 0.0 0.0 0.0 4.373942857142857 0.0 0.0 0.0 4.373942857142857" Properties=species:S:1:pos:R:3:forces:R:3 energy_per_atom=-9.868144094956747 energy=-39.276682861854034 free_energy=-39.276682861854034 stress="0.10216465234394433 1.4751009989597735e-18 1.538937432738038e-18 1.4751009989597735e-18 0.1021646523439443 -1.087292751391005e-18 1.538937432738038e-18 -1.087292751391005e-18 0.10216465234394434" pbc="T T T"
Nb       0.00000000       0.00000000       0.00000000       0.00000000       0.00000000       0.00000000
Nb       0.00000000       2.18697143       2.18697143       0.00000000       0.00000000      -0.00000000
Nb       2.18697143       0.00000000       2.18697143       0.00000000      -0.00000000      -0.00000000
Nb       2.18697143       2.18697143       0.00000000      -0.00000000      -0.00000000       0.00000000
4
Lattice="4.4096 0.0 0.0 0.0 4.4096 0.0 0.0 0.0 4.4096" Properties=species:S:1:pos:R:3:forces:R:3 energy_per_atom=-9.819170715463509 energy=-39.276682861854034 free_energy=-39.276682861854034 stress="0.10216465234394433 1.4751009989597735e-18 1.538937432738038e-18 1.4751009989597735e-18 0.1021646523439443 -1.087292751391005e-18 1.538937432738038e-18 -1.087292751391005e-18 0.10216465234394434" pbc="T T T"
Nb       0.00000000       0.00000000       0.00000000       0.00000000       0.00000000       0.00000000
Nb       0.00000000       2.20480000       2.20480000       0.00000000       0.00000000      -0.00000000
Nb       2.20480000       0.00000000       2.20480000       0.00000000      -0.00000000      -0.00000000
Nb       2.20480000       2.20480000       0.00000000      -0.00000000      -0.00000000       0.00000000
