2
Lattice="3.1142200000000004 0.0 0.0 0.0 3.1142200000000004 0.0 0.0 0.0 3.1142200000000004" Properties=species:S:1:pos:R:3:forces:R:3 energy_per_atom=-9.701778295921695 energy=-19.394535064697266 origin=W_base0 probe_id=0 sign=1 pbc="T T T"
Nb      -0.02289862       0.00573194       0.01544684       0.34181464      -0.25163779       0.05843519
Nb       1.56787087       1.53809195       1.57829667      -0.34181461       0.25163788      -0.05843521
2
Lattice="3.1142200000000004 0.0 0.0 0.0 3.1142200000000004 0.0 0.0 0.0 3.1142200000000004" Properties=species:S:1:pos:R:3:forces:R:3 energy_per_atom=-9.701778295921695 energy=-19.394533157348633 origin=W_base0 probe_id=0 sign=-1 pbc="T T T"
Nb       0.02289862      -0.00573194      -0.01544684      -0.34181303       0.25163734      -0.05843303
Nb       1.54634913       1.57612805       1.53592333       0.34181297      -0.25163722       0.05843313
2
Lattice="3.1142200000000004 0.0 0.0 0.0 3.1142200000000004 0.0 0.0 0.0 3.1142200000000004" Properties=species:S:1:pos:R:3:forces:R:3 energy_per_atom=-9.701778295921695 energy=-19.398887634277344 origin=W_base0 probe_id=1 sign=1 pbc="T T T"
Nb       0.01018508       0.01023615       0.01081824       0.05940655       0.22653714      -0.19986355
Nb       1.57314503       1.58967776       1.54823117      -0.05940656      -0.22653718       0.19986357
2
Lattice="3.1142200000000004 0.0 0.0 0.0 3.1142200000000004 0.0 0.0 0.0 3.1142200000000004" Properties=species:S:1:pos:R:3:forces:R:3 energy_per_atom=-9.701778295921695 energy=-19.398887634277344 origin=W_base0 probe_id=1 sign=-1 pbc="T T T"
Nb      -0.01018508      -0.01023615      -0.01081824      -0.05940657      -0.22653693       0.19986266
Nb       1.54107497       1.52454224       1.56598883       0.05940655       0.22653691      -0.19986290
2
Lattice="3.142617142857143 0.0 0.0 0.0 3.142617142857143 0.0 0.0 0.0 3.142617142857143" Properties=species:S:1:pos:R:3:forces:R:3 energy_per_atom=-9.81573211598785 energy=-19.62422752380371 origin=W_base1 probe_id=0 sign=1 pbc="T T T"
Nb      -0.01348500      -0.03472357       0.01029614       0.24181792       0.27176547      -0.03722786
Nb       1.58401094       1.56602336       1.57757739      -0.24181788      -0.27176541       0.03722772
2
Lattice="3.142617142857143 0.0 0.0 0.0 3.142617142857143 0.0 0.0 0.0 3.142617142857143" Properties=species:S:1:pos:R:3:forces:R:3 energy_per_atom=-9.81573211598785 energy=-19.62422752380371 origin=W_base1 probe_id=0 sign=-1 pbc="T T T"
Nb       0.01348500       0.03472357      -0.01029614      -0.24182035      -0.27176687       0.03722819
Nb       1.55860620       1.57659378       1.56503975       0.24182037       0.27176684      -0.03722820
2
Lattice="3.142617142857143 0.0 0.0 0.0 3.142617142857143 0.0 0.0 0.0 3.142617142857143" Properties=species:S:1:pos:R:3:forces:R:3 energy_per_atom=-9.81573211598785 energy=-19.625755310058594 origin=W_base1 probe_id=1 sign=1 pbc="T T T"
Nb       0.02742269       0.01700773       0.01134555      -0.15140450      -0.28461641       0.03797026
Nb       1.58233523       1.55746303       1.58676461       0.15140435       0.28461659      -0.03797050
2
Lattice="3.142617142857143 0.0 0.0 0.0 3.142617142857143 0.0 0.0 0.0 3.142617142857143" Properties=species:S:1:pos:R:3:forces:R:3 energy_per_atom=-9.81573211598785 energy=-19.625755310058594 origin=W_base1 probe_id=1 sign=-1 pbc="T T T"
Nb      -0.02742269      -0.01700773      -0.01134555       0.15140232       0.28461587      -0.03797258
Nb       1.56028191       1.58515411       1.55585253      -0.15140229      -0.28461576       0.03797266
2
Lattice="3.171014285714286 0.0 0.0 0.0 3.171014285714286 0.0 0.0 0.0 3.171014285714286" Properties=species:S:1:pos:R:3:forces:R:3 energy_per_atom=-9.906276005920041 energy=-19.803447723388672 origin=W_base2 probe_id=0 sign=1 pbc="T T T"
Nb       0.00904062       0.03127045       0.01380577      -0.20455818      -0.33041060      -0.01131789
Nb       1.56989980       1.57692965       1.59795014       0.20455816       0.33041045       0.01131791
2
Lattice="3.171014285714286 0.0 0.0 0.0 3.171014285714286 0.0 0.0 0.0 3.171014285714286" Properties=species:S:1:pos:R:3:forces:R:3 energy_per_atom=-9.906276005920041 energy=-19.803447723388672 origin=W_base2 probe_id=0 sign=-1 pbc="T T T"
Nb      -0.00904062      -0.03127045      -0.01380577       0.20455769       0.33041084       0.01131796
Nb       1.60111448       1.59408463       1.57306414      -0.20455769      -0.33041090      -0.01131796
2
Lattice="3.171014285714286 0.0 0.0 0.0 3.171014285714286 0.0 0.0 0.0 3.171014285714286" Properties=species:S:1:pos:R:3:forces:R:3 energy_per_atom=-9.906276005920041 energy=-19.810049057006836 origin=W_base2 probe_id=1 sign=1 pbc="T T T"
Nb      -0.00046595       0.01264700      -0.02059849       0.18951653       0.06086988       0.04342759
Nb       1.60791587       1.60549846       1.57014816      -0.18951654      -0.06086988      -0.04342758
2
Lattice="3.171014285714286 0.0 0.0 0.0 3.171014285714286 0.0 0.0 0.0 3.171014285714286" Properties=species:S:1:pos:R:3:forces:R:3 energy_per_atom=-9.906276005920041 energy=-19.810049057006836 origin=W_base2 probe_id=1 sign=-1 pbc="T T T"
Nb       0.00046595      -0.01264700       0.02059849      -0.18951625      -0.06087078      -0.04342894
Nb       1.56309841       1.56551582       1.60086612       0.18951628       0.06087086       0.04342878
2
Lattice="3.1994114285714295 0.0 0.0 0.0 3.1994114285714295 0.0 0.0 0.0 3.1994114285714295" Properties=species:S:1:pos:R:3:forces:R:3 energy_per_atom=-9.975747518418133 energy=-19.93956756591797 origin=W_base3 probe_id=0 sign=1 pbc="T T T"
Nb       0.01590810      -0.01845196       0.00934508      -0.24322316       0.24834740      -0.23282255
Nb       1.58241013       1.61515896       1.57727023       0.24322313      -0.24834752       0.23282263
2
Lattice="3.1994114285714295 0.0 0.0 0.0 3.1994114285714295 0.0 0.0 0.0 3.1994114285714295" Properties=species:S:1:pos:R:3:forces:R:3 energy_per_atom=-9.975747518418133 energy=-19.93956756591797 origin=W_base3 probe_id=0 sign=-1 pbc="T T T"
Nb      -0.01590810       0.01845196      -0.00934508       0.24322259      -0.24834788       0.23282354
Nb       1.61700129       1.58425246       1.62214119      -0.24322259       0.24834792      -0.23282340
2
Lattice="3.1994114285714295 0.0 0.0 0.0 3.1994114285714295 0.0 0.0 0.0 3.1994114285714295" Properties=species:S:1:pos:R:3:forces:R:3 energy_per_atom=-9.975747518418133 energy=-19.949031829833984 origin=W_base3 probe_id=1 sign=1 pbc="T T T"
Nb      -0.00925604      -0.00790293      -0.02742589       0.14872181      -0.08989805       0.07594434
Nb       1.61081473       1.57949590       1.58267611      -0.14872180       0.08989805      -0.07594439
2
Lattice="3.1994114285714295 0.0 0.0 0.0 3.1994114285714295 0.0 0.0 0.0 3.1994114285714295" Properties=species:S:1:pos:R:3:forces:R:3 energy_per_atom=-9.975747518418133 energy=-19.949031829833984 origin=W_base3 probe_id=1 sign=-1 pbc="T T T"
Nb       0.00925604       0.00790293       0.02742589      -0.14872187       0.08989818      -0.07594430
Nb       1.58859669       1.61991552       1.61673531       0.14872184      -0.08989817       0.07594435
2
Lattice="3.2278085714285725 0.0 0.0 0.0 3.2278085714285725 0.0 0.0 0.0 3.2278085714285725" Properties=species:S:1:pos:R:3:forces:R:3 energy_per_atom=-10.026401718214316 energy=-20.046953201293945 origin=W_base4 probe_id=0 sign=1 pbc="T T T"
Nb       0.02309011       0.02301140      -0.02556870      -0.14798132      -0.14481390       0.17584258
Nb       1.61350112       1.61392639       1.61626324       0.14798132       0.14481388      -0.17584255
2
Lattice="3.2278085714285725 0.0 0.0 0.0 3.2278085714285725 0.0 0.0 0.0 3.2278085714285725" Properties=species:S:1:pos:R:3:forces:R:3 energy_per_atom=-10.026401718214316 energy=-20.046953201293945 origin=W_base4 probe_id=0 sign=-1 pbc="T T T"
Nb      -0.02309011      -0.02301140       0.02556870       0.14798465       0.14481381      -0.17584293
Nb       1.61430746       1.61388219       1.61154534      -0.14798467      -0.14481376       0.17584287
2
Lattice="3.2278085714285725 0.0 0.0 0.0 3.2278085714285725 0.0 0.0 0.0 3.2278085714285725" Properties=species:S:1:pos:R:3:forces:R:3 energy_per_atom=-10.026401718214316 energy=-20.045400619506836 origin=W_base4 probe_id=1 sign=1 pbc="T T T"
Nb       0.03585112      -0.00466214      -0.00479346      -0.27293420       0.13675135      -0.01254950
Nb       1.60638028       1.63092058       1.60712320       0.27293420      -0.13675138       0.01254942
2
Lattice="3.2278085714285725 0.0 0.0 0.0 3.2278085714285725 0.0 0.0 0.0 3.2278085714285725" Properties=species:S:1:pos:R:3:forces:R:3 energy_per_atom=-10.026401718214316 energy=-20.045400619506836 origin=W_base4 probe_id=1 sign=-1 pbc="T T T"
Nb      -0.03585112       0.00466214       0.00479346       0.27293500      -0.13675076       0.01254944
Nb       1.62142830       1.59688800       1.62068538      -0.27293491       0.13675079      -0.01254954
2
Lattice="3.2562057142857146 0.0 0.0 0.0 3.2562057142857146 0.0 0.0 0.0 3.2562057142857146" Properties=species:S:1:pos:R:3:forces:R:3 energy_per_atom=-10.060369574878528 energy=-20.118667602539062 origin=W_base5 probe_id=0 sign=1 pbc="T T T"
Nb      -0.00101697       0.02002092       0.03186151       0.00085030      -0.12535706      -0.07807569
Nb       1.62724743       1.62426992       1.64512383      -0.00085029       0.12535706       0.07807568
2
Lattice="3.2562057142857146 0.0 0.0 0.0 3.2562057142857146 0.0 0.0 0.0 3.2562057142857146" Properties=species:S:1:pos:R:3:forces:R:3 energy_per_atom=-10.060369574878528 energy=-20.118667602539062 origin=W_base5 probe_id=0 sign=-1 pbc="T T T"
Nb       0.00101697      -0.02002092      -0.03186151      -0.00085065       0.12535700       0.07807465
Nb       1.62895829       1.63193580       1.61108189       0.00085065      -0.12535700      -0.07807461
2
Lattice="3.2562057142857146 0.0 0.0 0.0 3.2562057142857146 0.0 0.0 0.0 3.2562057142857146" Properties=species:S:1:pos:R:3:forces:R:3 energy_per_atom=-10.060369574878528 energy=-20.11370277404785 origin=W_base5 probe_id=1 sign=1 pbc="T T T"
Nb       0.00076124       0.01059057       0.02085068       0.03470914       0.01901891      -0.26985979
Nb       1.63539641       1.64227265       1.59775990      -0.03470914      -0.01901891       0.26985988
2
Lattice="3.2562057142857146 0.0 0.0 0.0 3.2562057142857146 0.0 0.0 0.0 3.2562057142857146" Properties=species:S:1:pos:R:3:forces:R:3 energy_per_atom=-10.060369574878528 energy=-20.11370277404785 origin=W_base5 probe_id=1 sign=-1 pbc="T T T"
Nb      -0.00076124      -0.01059057      -0.02085068      -0.03471059      -0.01902042       0.26985949
Nb       1.62080931       1.61393307       1.65844582       0.03471059       0.01902041      -0.26985943
2
Lattice="3.2846028571428576 0.0 0.0 0.0 3.2846028571428576 0.0 0.0 0.0 3.2846028571428576" Properties=species:S:1:pos:R:3:forces:R:3 energy_per_atom=-10.079599482365285 energy=-20.154521942138672 origin=W_base6 probe_id=0 sign=1 pbc="T T T"
Nb       0.01746851       0.00641752       0.00973996      -0.08999848       0.05427439      -0.17172047
Nb       1.63896167       1.66125246       1.61212415       0.08999848      -0.05427438       0.17172045
2
Lattice="3.2846028571428576 0.0 0.0 0.0 3.2846028571428576 0.0 0.0 0.0 3.2846028571428576" Properties=species:S:1:pos:R:3:forces:R:3 energy_per_atom=-10.079599482365285 energy=-20.154521942138672 origin=W_base6 probe_id=0 sign=-1 pbc="T T T"
Nb      -0.01746851      -0.00641752      -0.00973996       0.08999859      -0.05427430       0.17172047
Nb       1.64564119       1.62335040       1.67247871      -0.08999860       0.05427428      -0.17172059
2
Lattice="3.2846028571428576 0.0 0.0 0.0 3.2846028571428576 0.0 0.0 0.0 3.2846028571428576" Properties=species:S:1:pos:R:3:forces:R:3 energy_per_atom=-10.079599482365285 energy=-20.154621124267578 origin=W_base6 probe_id=1 sign=1 pbc="T T T"
Nb       0.02019103      -0.00510796      -0.00328237      -0.16852799      -0.10376950      -0.02173458
Nb       1.62331431       1.61317745       1.63400061       0.16852802       0.10376954       0.02173460
2
Lattice="3.2846028571428576 0.0 0.0 0.0 3.2846028571428576 0.0 0.0 0.0 3.2846028571428576" Properties=species:S:1:pos:R:3:forces:R:3 energy_per_atom=-10.079599482365285 energy=-20.154621124267578 origin=W_base6 probe_id=1 sign=-1 pbc="T T T"
Nb      -0.02019103       0.00510796       0.00328237       0.16852698       0.10377055       0.02173508
Nb       1.66128855       1.67142541       1.65060225      -0.16852696      -0.10377054      -0.02173505
2
Lattice="3.3413971428571427 0.0 0.0 0.0 3.3413971428571427 0.0 0.0 0.0 3.3413971428571427" Properties=species:S:1:pos:R:3:forces:R:3 energy_per_atom=-10.080388642385632 energy=-20.160181045532227 origin=W_base7 probe_id=0 sign=1 pbc="T T T"
Nb       0.00511354      -0.02542298      -0.00059474       0.04913937       0.01351911       0.02263442
Nb       1.69466059       1.65044977       1.67876961      -0.04913937      -0.01351911      -0.02263447
2
Lattice="3.3413971428571427 0.0 0.0 0.0 3.3413971428571427 0.0 0.0 0.0 3.3413971428571427" Properties=species:S:1:pos:R:3:forces:R:3 energy_per_atom=-10.080388642385632 energy=-20.160181045532227 origin=W_base7 probe_id=0 sign=-1 pbc="T T T"
Nb      -0.00511354       0.02542298       0.00059474      -0.04913940      -0.01351841      -0.02263384
Nb       1.64673655       1.69094737       1.66262753       0.04913941       0.01351842       0.02263380
2
Lattice="3.3413971428571427 0.0 0.0 0.0 3.3413971428571427 0.0 0.0 0.0 3.3413971428571427" Properties=species:S:1:pos:R:3:forces:R:3 energy_per_atom=-10.080388642385632 energy=-20.159912109375 origin=W_base7 probe_id=1 sign=1 pbc="T T T"
Nb      -0.00863851       0.02316374      -0.00647373      -0.00058490       0.00456707       0.06708894
Nb       1.66183698       1.69560531       1.68993912       0.00058489      -0.00456703      -0.06708893
2
Lattice="3.3413971428571427 0.0 0.0 0.0 3.3413971428571427 0.0 0.0 0.0 3.3413971428571427" Properties=species:S:1:pos:R:3:forces:R:3 energy_per_atom=-10.080388642385632 energy=-20.159912109375 origin=W_base7 probe_id=1 sign=-1 pbc="T T T"
Nb       0.00863851      -0.02316374       0.00647373       0.00058498      -0.00456736      -0.06708816
Nb       1.67956016       1.64579183       1.65145802      -0.00058499       0.00456735       0.06708814
2
Lattice="3.3697942857142857 0.0 0.0 0.0 3.3697942857142857 0.0 0.0 0.0 3.3697942857142857" Properties=species:S:1:pos:R:3:forces:R:3 energy_per_atom=-10.06450968333432 energy=-20.12704849243164 origin=W_base8 probe_id=0 sign=1 pbc="T T T"
Nb       0.03065924       0.00053848       0.02110476      -0.08598925       0.01326509      -0.01947398
Nb       1.67245227       1.69201512       1.69633977       0.08598926      -0.01326506       0.01947405
2
Lattice="3.3697942857142857 0.0 0.0 0.0 3.3697942857142857 0.0 0.0 0.0 3.3697942857142857" Properties=species:S:1:pos:R:3:forces:R:3 energy_per_atom=-10.06450968333432 energy=-20.12704849243164 origin=W_base8 probe_id=0 sign=-1 pbc="T T T"
Nb      -0.03065924      -0.00053848      -0.02110476       0.08598827      -0.01326419       0.01947359
Nb       1.69734201       1.67777916       1.67345451      -0.08598828       0.01326421      -0.01947357
2
Lattice="3.3697942857142857 0.0 0.0 0.0 3.3697942857142857 0.0 0.0 0.0 3.3697942857142857" Properties=species:S:1:pos:R:3:forces:R:3 energy_per_atom=-10.06450968333432 energy=-20.126102447509766 origin=W_base8 probe_id=1 sign=1 pbc="T T T"
Nb      -0.02337086      -0.00293987       0.00852558       0.10877948      -0.00259496       0.00597585
Nb       1.71565147       1.68068785       1.69634664      -0.10877949       0.00259495      -0.00597587
2
Lattice="3.3697942857142857 0.0 0.0 0.0 3.3697942857142857 0.0 0.0 0.0 3.3697942857142857" Properties=species:S:1:pos:R:3:forces:R:3 energy_per_atom=-10.06450968333432 energy=-20.126102447509766 origin=W_base8 probe_id=1 sign=-1 pbc="T T T"
Nb       0.02337086       0.00293987      -0.00852558      -0.10877955       0.00259500      -0.00597574
Nb       1.65414281       1.68910643       1.67344764       0.10877955      -0.00259501       0.00597574
2
Lattice="3.398191428571429 0.0 0.0 0.0 3.398191428571429 0.0 0.0 0.0 3.398191428571429" Properties=species:S:1:pos:R:3:forces:R:3 energy_per_atom=-10.039036049516397 energy=-20.07668685913086 origin=W_base9 probe_id=0 sign=1 pbc="T T T"
Nb       0.01675537       0.02248013       0.00001608      -0.06228420      -0.01097257       0.01161108
Nb       1.67366086       1.71418709       1.70693049       0.06228417       0.01097259      -0.01161107
2
Lattice="3.398191428571429 0.0 0.0 0.0 3.398191428571429 0.0 0.0 0.0 3.398191428571429" Properties=species:S:1:pos:R:3:forces:R:3 energy_per_atom=-10.039036049516397 energy=-20.07668685913086 origin=W_base9 probe_id=0 sign=-1 pbc="T T T"
Nb      -0.01675537      -0.02248013      -0.00001608       0.06228437       0.01097251      -0.01161109
Nb       1.72453056       1.68400433       1.69126093      -0.06228440      -0.01097248       0.01161107
2
Lattice="3.398191428571429 0.0 0.0 0.0 3.398191428571429 0.0 0.0 0.0 3.398191428571429" Properties=species:S:1:pos:R:3:forces:R:3 energy_per_atom=-10.039036049516397 energy=-20.07709503173828 origin=W_base9 probe_id=1 sign=1 pbc="T T T"
Nb      -0.00960566      -0.00214534      -0.00921248       0.03239407       0.01738401      -0.03931833
Nb       1.71150898       1.70875246       1.66313628      -0.03239407      -0.01738398       0.03931832
2
Lattice="3.398191428571429 0.0 0.0 0.0 3.398191428571429 0.0 0.0 0.0 3.398191428571429" Properties=species:S:1:pos:R:3:forces:R:3 energy_per_atom=-10.039036049516397 energy=-20.07709503173828 origin=W_base9 probe_id=1 sign=-1 pbc="T T T"
Nb       0.00960566       0.00214534       0.00921248      -0.03239423      -0.01738381       0.03931806
Nb       1.68668244       1.68943896       1.73505514       0.03239423       0.01738380      -0.03931806
2
Lattice="3.4265885714285713 0.0 0.0 0.0 3.4265885714285713 0.0 0.0 0.0 3.4265885714285713" Properties=species:S:1:pos:R:3:forces:R:3 energy_per_atom=-10.004623919936677 energy=-20.00823402404785 origin=W_base10 probe_id=0 sign=1 pbc="T T T"
Nb       0.00570693       0.00308348       0.02806458      -0.00683658      -0.03509832      -0.03010617
Nb       1.71257513       1.68342950       1.71308453       0.00683660       0.03509832       0.03010626
2
Lattice="3.4265885714285713 0.0 0.0 0.0 3.4265885714285713 0.0 0.0 0.0 3.4265885714285713" Properties=species:S:1:pos:R:3:forces:R:3 energy_per_atom=-10.004623919936677 energy=-20.00823211669922 origin=W_base10 probe_id=0 sign=-1 pbc="T T T"
Nb      -0.00570693      -0.00308348      -0.02806458       0.00683654       0.03509819       0.03010655
Nb       1.71401345       1.74315908       1.71350405      -0.00683653      -0.03509819      -0.03010662
2
Lattice="3.4265885714285713 0.0 0.0 0.0 3.4265885714285713 0.0 0.0 0.0 3.4265885714285713" Properties=species:S:1:pos:R:3:forces:R:3 energy_per_atom=-10.004623919936677 energy=-20.007923126220703 origin=W_base10 probe_id=1 sign=1 pbc="T T T"
Nb       0.00791571       0.01838199       0.02855376      -0.03058955      -0.02902118      -0.03321715
Nb       1.69267993       1.70460663       1.71087282       0.03058955       0.02902116       0.03321716
2
Lattice="3.4265885714285713 0.0 0.0 0.0 3.4265885714285713 0.0 0.0 0.0 3.4265885714285713" Properties=species:S:1:pos:R:3:forces:R:3 energy_per_atom=-10.004623919936677 energy=-20.007923126220703 origin=W_base10 probe_id=1 sign=-1 pbc="T T T"
Nb      -0.00791571      -0.01838199      -0.02855376       0.03058923       0.02902116       0.03321698
Nb       1.73390865       1.72198195       1.71571576      -0.03058925      -0.02902117      -0.03321697
2
Lattice="3.4549857142857148 0.0 0.0 0.0 3.4549857142857148 0.0 0.0 0.0 3.4549857142857148" Properties=species:S:1:pos:R:3:forces:R:3 energy_per_atom=-9.961757095800763 energy=-19.922956466674805 origin=W_base11 probe_id=0 sign=1 pbc="T T T"
Nb      -0.00474726      -0.01295000       0.00194002      -0.00394226       0.01114631       0.02613935
Nb       1.71729111       1.72993746       1.76515065       0.00394226      -0.01114630      -0.02613940
2
Lattice="3.4549857142857148 0.0 0.0 0.0 3.4549857142857148 0.0 0.0 0.0 3.4549857142857148" Properties=species:S:1:pos:R:3:forces:R:3 energy_per_atom=-9.961757095800763 energy=-19.922956466674805 origin=W_base11 probe_id=0 sign=-1 pbc="T T T"
Nb       0.00474726       0.01295000      -0.00194002       0.00394224      -0.01114606      -0.02613948
Nb       1.73769461       1.72504826       1.68983507      -0.00394223       0.01114603       0.02613945
2
Lattice="3.4549857142857148 0.0 0.0 0.0 3.4549857142857148 0.0 0.0 0.0 3.4549857142857148" Properties=species:S:1:pos:R:3:forces:R:3 energy_per_atom=-9.961757095800763 energy=-19.9232120513916 origin=W_base11 probe_id=1 sign=1 pbc="T T T"
Nb       0.00937757       0.01643199      -0.01694564      -0.02083899       0.00029756      -0.00254348
Nb       1.70815774       1.74433852       1.70701270       0.02083899      -0.00029755       0.00254348
2
Lattice="3.4549857142857148 0.0 0.0 0.0 3.4549857142857148 0.0 0.0 0.0 3.4549857142857148" Properties=species:S:1:pos:R:3:forces:R:3 energy_per_atom=-9.961757095800763 energy=-19.9232120513916 origin=W_base11 probe_id=1 sign=-1 pbc="T T T"
Nb      -0.00937757      -0.01643199       0.01694564       0.02083904      -0.00029736       0.00254345
Nb       1.74682798       1.71064720       1.74797302      -0.02083904       0.00029734      -0.00254337
2
Lattice="3.483382857142858 0.0 0.0 0.0 3.483382857142858 0.0 0.0 0.0 3.483382857142858" Properties=species:S:1:pos:R:3:forces:R:3 energy_per_atom=-9.910792583619795 energy=-19.820985794067383 origin=W_base12 probe_id=0 sign=1 pbc="T T T"
Nb      -0.01855612       0.01308938      -0.00804638       0.00956350      -0.01171901       0.01775427
Nb       1.74468523       1.72850784       1.77265897      -0.00956350       0.01171903      -0.01775427
2
Lattice="3.483382857142858 0.0 0.0 0.0 3.483382857142858 0.0 0.0 0.0 3.483382857142858" Properties=species:S:1:pos:R:3:forces:R:3 energy_per_atom=-9.910792583619795 energy=-19.820987701416016 origin=W_base12 probe_id=0 sign=-1 pbc="T T T"
Nb       0.01855612      -0.01308938       0.00804638      -0.00956370       0.01171920      -0.01775426
Nb       1.73869763       1.75487502       1.71072389       0.00956370      -0.01171921       0.01775427
2
Lattice="3.483382857142858 0.0 0.0 0.0 3.483382857142858 0.0 0.0 0.0 3.483382857142858" Properties=species:S:1:pos:R:3:forces:R:3 energy_per_atom=-9.910792583619795 energy=-19.820999145507812 origin=W_base12 probe_id=1 sign=1 pbc="T T T"
Nb      -0.01526781       0.00275984      -0.00513217       0.02305810       0.00086829      -0.00476804
Nb       1.77599465       1.74643437       1.72569469      -0.02305808      -0.00086832       0.00476802
2
Lattice="3.483382857142858 0.0 0.0 0.0 3.483382857142858 0.0 0.0 0.0 3.483382857142858" Properties=species:S:1:pos:R:3:forces:R:3 energy_per_atom=-9.910792583619795 energy=-19.820999145507812 origin=W_base12 probe_id=1 sign=-1 pbc="T T T"
Nb       0.01526781      -0.00275984       0.00513217      -0.02305797      -0.00086840       0.00476838
Nb       1.70738821       1.73694849       1.75768817       0.02305797       0.00086833      -0.00476847
2
Lattice="3.5117800000000003 0.0 0.0 0.0 3.5117800000000003 0.0 0.0 0.0 3.5117800000000003" Properties=species:S:1:pos:R:3:forces:R:3 energy_per_atom=-9.852004902334615 energy=-19.703773498535156 origin=W_base13 probe_id=0 sign=1 pbc="T T T"
Nb       0.01718159       0.00568706      -0.00063932      -0.00821923       0.00089362       0.00507706
Nb       1.73178145       1.76654278       1.78233809       0.00821922      -0.00089370      -0.00507708
2
Lattice="3.5117800000000003 0.0 0.0 0.0 3.5117800000000003 0.0 0.0 0.0 3.5117800000000003" Properties=species:S:1:pos:R:3:forces:R:3 energy_per_atom=-9.852004902334615 energy=-19.703773498535156 origin=W_base13 probe_id=0 sign=-1 pbc="T T T"
Nb      -0.01718159      -0.00568706       0.00063932       0.00821907      -0.00089371      -0.00507710
Nb       1.77999855       1.74523722       1.72944191      -0.00821906       0.00089371       0.00507709
2
Lattice="3.5117800000000003 0.0 0.0 0.0 3.5117800000000003 0.0 0.0 0.0 3.5117800000000003" Properties=species:S:1:pos:R:3:forces:R:3 energy_per_atom=-9.852004902334615 energy=-19.703887939453125 origin=W_base13 probe_id=1 sign=1 pbc="T T T"
Nb       0.02981396       0.00600246      -0.00736699      -0.00349707      -0.00586165       0.00028669
Nb       1.76702322       1.73169566       1.75008697       0.00349709       0.00586166      -0.00028661
2
Lattice="3.5117800000000003 0.0 0.0 0.0 3.5117800000000003 0.0 0.0 0.0 3.5117800000000003" Properties=species:S:1:pos:R:3:forces:R:3 energy_per_atom=-9.852004902334615 energy=-19.703887939453125 origin=W_base13 probe_id=1 sign=-1 pbc="T T T"
Nb      -0.02981396      -0.00600246       0.00736699       0.00349708       0.00586149      -0.00028642
Nb       1.74475678       1.78008434       1.76169303      -0.00349710      -0.00586154       0.00028638
4
Lattice="3.9103999999999997 0.0 0.0 0.0 3.9103999999999997 0.0 0.0 0.0 3.9103999999999997" Properties=species:S:1:pos:R:3:forces:R:3 energy_per_atom=-9.52430821663311 energy=-38.086822509765625 origin=W_base0 probe_id=0 sign=1 pbc="T T T"
Nb      -0.01354938       0.00339166       0.00914007       0.31409532       0.05197085       0.03670856
Nb       0.00636733       1.94394680       1.96773640       0.07769147       0.19940862      -0.15588698
Nb       1.96341070       0.00825187       1.96392112      -0.16799340      -0.00558084      -0.11073066
Nb       1.96812663       1.98145449      -0.00715766      -0.22379346      -0.24579862       0.22990867
4
Lattice="3.9103999999999997 0.0 0.0 0.0 3.9103999999999997 0.0 0.0 0.0 3.9103999999999997" Properties=species:S:1:pos:R:3:forces:R:3 energy_per_atom=-9.52430821663311 energy=-38.086822509765625 origin=W_base0 probe_id=0 sign=-1 pbc="T T T"
Nb       0.01354938      -0.00339166      -0.00914007      -0.31409428      -0.05196826      -0.03670945
Nb      -0.00636733       1.96645320       1.94266360      -0.07769086      -0.19940940       0.15588826
Nb       1.94698930      -0.00825187       1.94647888       0.16799316       0.00558084       0.11073083
Nb       1.94227337       1.92894551       0.00715766       0.22379196       0.24579696      -0.22990960
4
Lattice="3.9103999999999997 0.0 0.0 0.0 3.9103999999999997 0.0 0.0 0.0 3.9103999999999997" Properties=species:S:1:pos:R:3:forces:R:3 energy_per_atom=-9.52430821663311 energy=-38.08828353881836 origin=W_base0 probe_id=1 sign=1 pbc="T T T"
Nb       0.00054562       0.02027373      -0.01546306      -0.08515734      -0.31221527       0.12553385
Nb       0.00376267       1.94723585       1.95497092      -0.12327072       0.09073149      -0.14776769
Nb       1.96068673      -0.02231778       1.94372991      -0.02468270       0.19338745      -0.01439809
Nb       1.93895694       1.95252922      -0.00796102       0.23311082       0.02809599       0.03663163
4
Lattice="3.9103999999999997 0.0 0.0 0.0 3.9103999999999997 0.0 0.0 0.0 3.9103999999999997" Properties=species:S:1:pos:R:3:forces:R:3 energy_per_atom=-9.52430821663311 energy=-38.088279724121094 origin=W_base0 probe_id=1 sign=-1 pbc="T T T"
Nb      -0.00054562      -0.02027373       0.01546306       0.08515774       0.31221712      -0.12553310
Nb      -0.00376267       1.96316415       1.95542908       0.12327184      -0.09073244       0.14776598
Nb       1.94971327       0.02231778       1.96667009       0.02468281      -0.19338764       0.01439795
Nb       1.97144306       1.95787078       0.00796102      -0.23311239      -0.02809676      -0.03663044
4
Lattice="3.946057142857143 0.0 0.0 0.0 3.946057142857143 0.0 0.0 0.0 3.946057142857143" Properties=species:S:1:pos:R:3:forces:R:3 energy_per_atom=-9.64638314119795 energy=-38.57794952392578 origin=W_base1 probe_id=0 sign=1 pbc="T T T"
Nb      -0.00923314      -0.02377514       0.00704974       0.27104795       0.18069699      -0.01245437
Nb       0.00869728       1.96940980       1.97732082       0.07791711      -0.02056343       0.05660396
Nb       1.99301498       0.01239570       1.98129752      -0.23879062      -0.20919538       0.01373964
Nb       1.98106510       1.96293756       0.01126479      -0.11017451       0.04906195      -0.05788939
4
Lattice="3.946057142857143 0.0 0.0 0.0 3.946057142857143 0.0 0.0 0.0 3.946057142857143" Properties=species:S:1:pos:R:3:forces:R:3 energy_per_atom=-9.64638314119795 energy=-38.57794952392578 origin=W_base1 probe_id=0 sign=-1 pbc="T T T"
Nb       0.00923314       0.02377514      -0.00704974      -0.27104777      -0.18069592       0.01245504
Nb      -0.00869728       1.97664734       1.96873632      -0.07791583       0.02056213      -0.05660451
Nb       1.95304216      -0.01239570       1.96475962       0.23879007       0.20919678      -0.01374025
Nb       1.96499204       1.98311958      -0.01126479       0.11017360      -0.04906301       0.05789012
4
Lattice="3.946057142857143 0.0 0.0 0.0 3.946057142857143 0.0 0.0 0.0 3.946057142857143" Properties=species:S:1:pos:R:3:forces:R:3 energy_per_atom=-9.64638314119795 energy=-38.572898864746094 origin=W_base1 probe_id=1 sign=1 pbc="T T T"
Nb      -0.02056218      -0.00414236      -0.00545461       0.29157263       0.06496191       0.18134123
Nb      -0.02156076       1.97165225       1.99352828       0.30236998      -0.10346393      -0.26892743
Nb       1.96878598      -0.01506310       1.97189281      -0.21654063       0.18279171      -0.03535242
Nb       1.98368004       1.97543869      -0.00003325      -0.37740189      -0.14428948       0.12293869
4