249
Lattice="14.925557087285037 0.0 0.0 0.0 14.925557087285037 0.0 0.0 0.0 14.925557087285037" Properties=species:S:1:pos:R:3:forces:R:3 energy=-2199.510753547098 energy_per_atom=-8.83337652026947 stress_voigt="-0.6935852502606933 -0.6935852502606951 -0.6935852502606956 1.5930340227575994e-17 3.191018363762099e-17 -3.211466481055012e-17" meta="_JSON {\"supercell\": \"5x5x5\", \"volume_per_atom_initial\": 13.3, \"type\": \"vacancy\", \"relaxed\": true}" pbc="T T T"
Nb      -0.00000000      -0.00000000      -0.00000000       0.00000000       0.00000000       0.00000000
Nb       1.49709084       1.49709084       1.49709084       0.02406031       0.02406031       0.02406031
Nb      -0.00000000      -0.00000000       2.98385836      -0.00000000      -0.00000000      -0.01364020
Nb       1.49439357       1.49439357       4.47859054       0.00328985       0.00328985       0.01855085
Nb      -0.00000000      -0.00000000       5.96981084       0.00000000      -0.00000000       0.00232827
Nb       1.49428113       1.49428113       7.46277854      -0.00150501      -0.00150501      -0.00000000
Nb      -0.00000000      -0.00000000       8.95574625      -0.00000000       0.00000000      -0.00232827
Nb       1.49439357       1.49439357      10.44696654       0.00328985       0.00328985      -0.01855085
Nb      -0.00000000      -0.00000000      11.94169873      -0.00000000      -0.00000000       0.01364020
Nb       1.49709084       1.49709084      13.42846625       0.02406031       0.02406031      -0.02406031
Nb      -0.00000000       2.98385836      -0.00000000       0.00000000      -0.01364020      -0.00000000
Nb       1.49439357       4.47859054       1.49439357       0.00328985       0.01855085       0.00328985
Nb      -0.00000000       2.98704610       2.98704610       0.00000000      -0.03210568      -0.03210568
Nb       1.49720935       4.47468827       4.47468827      -0.03399396      -0.02670551      -0.02670551
Nb      -0.00000000       2.98918003       5.97225568       0.00000000      -0.02498595       0.00387441
Nb       1.50068982       4.48036415       7.46277854      -0.03006851      -0.02652105       0.00000000
Nb      -0.00000000       2.98918003       8.95330141       0.00000000      -0.02498595      -0.00387441
Nb       1.49720935       4.47468827      10.45086881      -0.03399396      -0.02670551       0.02670551
Nb      -0.00000000       2.98704610      11.93851099      -0.00000000      -0.03210568       0.03210568
Nb       1.49439357       4.47859054      13.43116351       0.00328985       0.01855085      -0.00328985
Nb      -0.00000000       5.96981084      -0.00000000       0.00000000       0.00232827      -0.00000000
Nb       1.49428113       7.46277854       1.49428113      -0.00150501      -0.00000000      -0.00150501
Nb      -0.00000000       5.97225568       2.98918003       0.00000000       0.00387441      -0.02498595
Nb       1.50068982       7.46277854       4.48036415      -0.03006851       0.00000000      -0.02652105
Nb      -0.00000000       5.96716560       5.96716560       0.00000000      -0.02220678      -0.02220678
Nb       1.48076589       7.46277854       7.46277854      -0.00664645      -0.00000000      -0.00000000
Nb      -0.00000000       5.96716560       8.95839148       0.00000000      -0.02220678       0.02220678
Nb       1.50068982       7.46277854      10.44519294      -0.03006851      -0.00000000       0.02652105
Nb      -0.00000000       5.97225568      11.93637706       0.00000000       0.00387441       0.02498595
Nb       1.49428113       7.46277854      13.43127596      -0.00150501      -0.00000000       0.00150501
Nb      -0.00000000       8.95574625      -0.00000000      -0.00000000      -0.00232827      -0.00000000
Nb       1.49439357      10.44696654       1.49439357       0.00328985      -0.01855085       0.00328985
Nb      -0.00000000       8.95330141       2.98918003      -0.00000000      -0.00387441      -0.02498595
Nb       1.49720935      10.45086881       4.47468827      -0.03399396       0.02670551      -0.02670551
Nb      -0.00000000       8.95839148       5.96716560      -0.00000000       0.02220678      -0.02220678
Nb       1.50068982      10.44519294       7.46277854      -0.03006851       0.02652105       0.00000000
Nb      -0.00000000       8.95839148       8.95839148       0.00000000       0.02220678       0.02220678
Nb       1.49720935      10.45086881      10.45086881      -0.03399396       0.02670551       0.02670551
Nb      -0.00000000       8.95330141      11.93637706       0.00000000      -0.00387441       0.02498595
Nb       1.49439357      10.44696654      13.43116351       0.00328985      -0.01855085      -0.00328985
Nb      -0.00000000      11.94169873      -0.00000000       0.00000000       0.01364020       0.00000000
Nb       1.49709084      13.42846625       1.49709084       0.02406031      -0.02406031       0.02406031
Nb      -0.00000000      11.93851099       2.98704610       0.00000000       0.03210568      -0.03210568
Nb       1.49439357      13.43116351       4.47859054       0.00328985      -0.00328985       0.01855085
Nb      -0.00000000      11.93637706       5.97225568       0.00000000       0.02498595       0.00387441
Nb       1.49428113      13.43127596       7.46277854      -0.00150501       0.00150501      -0.00000000
Nb      -0.00000000      11.93637706       8.95330141       0.00000000       0.02498595      -0.00387441
Nb       1.49439357      13.43116351      10.44696654       0.00328985      -0.00328985      -0.01855085
Nb      -0.00000000      11.93851099      11.93851099       0.00000000       0.03210568       0.03210568
Nb       1.49709084      13.42846625      13.42846625       0.02406031      -0.02406031      -0.02406031
Nb       2.98385836      -0.00000000      -0.00000000      -0.01364020       0.00000000      -0.00000000
Nb       4.47859054       1.49439357       1.49439357       0.01855085       0.00328985       0.00328985
Nb       2.98704610      -0.00000000       2.98704610      -0.03210568       0.00000000      -0.03210568
Nb       4.47468827       1.49720935       4.47468827      -0.02670551      -0.03399396      -0.02670551
Nb       2.98918003      -0.00000000       5.97225568      -0.02498595       0.00000000       0.00387441
Nb       4.48036415       1.50068982       7.46277854      -0.02652105      -0.03006851      -0.00000000
Nb       2.98918003      -0.00000000       8.95330141      -0.02498595       0.00000000      -0.00387441
Nb       4.47468827       1.49720935      10.45086881      -0.02670551      -0.03399396       0.02670551
Nb       2.98704610      -0.00000000      11.93851099      -0.03210568      -0.00000000       0.03210568
Nb       4.47859054       1.49439357      13.43116351       0.01855085       0.00328985      -0.00328985
Nb       2.98704610       2.98704610      -0.00000000      -0.03210568      -0.03210568      -0.00000000
Nb       4.47468827       4.47468827       1.49720935      -0.02670551      -0.02670551      -0.03399396
Nb       3.00218704       3.00218704       3.00218704       0.01780624       0.01780624       0.01780624
Nb       4.52463019       4.52463019       4.52463019       0.00257066       0.00257066       0.00257066
Nb       2.99346462       2.99346462       5.97420375       0.01412799       0.01412799       0.02110601
Nb       4.51746195       4.51746195       7.46277854      -0.00302101      -0.00302101      -0.00000000
Nb       2.99346462       2.99346462       8.95135334       0.01412799       0.01412799      -0.02110601
Nb       4.52463019       4.52463019      10.40092690       0.00257066       0.00257066      -0.00257066
Nb       3.00218704       3.00218704      11.92337004       0.01780624       0.01780624      -0.01780624
Nb       4.47468827       4.47468827      13.42834773      -0.02670551      -0.02670551       0.03399396
Nb       2.98918003       5.97225568      -0.00000000      -0.02498595       0.00387441       0.00000000
Nb       4.48036415       7.46277854       1.50068982      -0.02652105       0.00000000      -0.03006851
Nb       2.99346462       5.97420375       2.99346462       0.01412799       0.02110601       0.01412799
Nb       4.51746195       7.46277854       4.51746195      -0.00302101      -0.00000000      -0.00302101
Nb       2.98640285       5.95548373       5.95548373      -0.02049188       0.04989642       0.04989642
Nb       4.36545775       7.46277854       7.46277854       0.05107876      -0.00000000      -0.00000000
Nb       2.98640285       5.95548373       8.97007336      -0.02049188       0.04989642      -0.04989642
Nb       4.51746195       7.46277854      10.40809514      -0.00302101      -0.00000000       0.00302101
Nb       2.99346462       5.97420375      11.93209247       0.01412799       0.02110601      -0.01412799
Nb       4.48036415       7.46277854      13.42486727      -0.02652105       0.00000000       0.03006851
Nb       2.98918003       8.95330141      -0.00000000      -0.02498595      -0.00387441       0.00000000
Nb       4.47468827      10.45086881       1.49720935      -0.02670551       0.02670551      -0.03399396
Nb       2.99346462       8.95135334       2.99346462       0.01412799      -0.02110601       0.01412799
Nb       4.52463019      10.40092690       4.52463019       0.00257066      -0.00257066       0.00257066
Nb       2.98640285       8.97007336       5.95548373      -0.02049188      -0.04989642       0.04989642
Nb       4.51746195      10.40809514       7.46277854      -0.00302101       0.00302101      -0.00000000
Nb       2.98640285       8.97007336       8.97007336      -0.02049188      -0.04989642      -0.04989642
Nb       4.52463019      10.40092690      10.40092690       0.00257066      -0.00257066      -0.00257066
Nb       2.99346462       8.95135334      11.93209247       0.01412799      -0.02110601      -0.01412799
Nb       4.47468827      10.45086881      13.42834773      -0.02670551       0.02670551       0.03399396
Nb       2.98704610      11.93851099      -0.00000000      -0.03210568       0.03210568       0.00000000
Nb       4.47859054      13.43116351       1.49439357       0.01855085      -0.00328985       0.00328985
Nb       3.00218704      11.92337004       3.00218704       0.01780624      -0.01780624       0.01780624
Nb       4.47468827      13.42834773       4.47468827      -0.02670551       0.03399396      -0.02670551
Nb       2.99346462      11.93209247       5.97420375       0.01412799      -0.01412799       0.02110601
Nb       4.48036415      13.42486727       7.46277854      -0.02652105       0.03006851       0.00000000
Nb       2.99346462      11.93209247       8.95135334       0.01412799      -0.01412799      -0.02110601
Nb       4.47468827      13.42834773      10.45086881      -0.02670551       0.03399396       0.02670551
Nb       3.00218704      11.92337004      11.92337004       0.01780624      -0.01780624      -0.01780624
Nb       4.47859054      13.43116351      13.43116351       0.01855085      -0.00328985      -0.00328985
Nb       5.96981084      -0.00000000      -0.00000000       0.00232827       0.00000000       0.00000000
Nb       7.46277854       1.49428113       1.49428113       0.00000000      -0.00150501      -0.00150501
Nb       5.97225568      -0.00000000       2.98918003       0.00387441       0.00000000      -0.02498595
Nb       7.46277854       1.50068982       4.48036415       0.00000000      -0.03006851      -0.02652105
Nb       5.96716560      -0.00000000       5.96716560      -0.02220678       0.00000000      -0.02220678
Nb       7.46277854       1.48076589       7.46277854      -0.00000000      -0.00664645      -0.00000000
Nb       5.96716560      -0.00000000       8.95839148      -0.02220678       0.00000000       0.02220678
Nb       7.46277854       1.50068982      10.44519294      -0.00000000      -0.03006851       0.02652105
Nb       5.97225568      -0.00000000      11.93637706       0.00387441       0.00000000       0.02498595
Nb       7.46277854       1.49428113      13.43127596      -0.00000000      -0.00150501       0.00150501
Nb       5.97225568       2.98918003      -0.00000000       0.00387441      -0.02498595      -0.00000000
Nb       7.46277854       4.48036415       1.50068982      -0.00000000      -0.02652105      -0.03006851
Nb       5.97420375       2.99346462       2.99346462       0.02110601       0.01412799       0.01412799
Nb       7.46277854       4.51746195       4.51746195      -0.00000000      -0.00302101      -0.00302101
Nb       5.95548373       2.98640285       5.95548373       0.04989642      -0.02049188       0.04989642
Nb       7.46277854       4.36545775       7.46277854      -0.00000000       0.05107876      -0.00000000
Nb       5.95548373       2.98640285       8.97007336       0.04989642      -0.02049188      -0.04989642
Nb       7.46277854       4.51746195      10.40809514       0.00000000      -0.00302101       0.00302101
Nb       5.97420375       2.99346462      11.93209247       0.02110601       0.01412799      -0.01412799
Nb       7.46277854       4.48036415      13.42486727      -0.00000000      -0.02652105       0.03006851
Nb       5.96716560       5.96716560      -0.00000000      -0.02220678      -0.02220678      -0.00000000
Nb       7.46277854       7.46277854       1.48076589      -0.00000000      -0.00000000      -0.00664645
Nb       5.95548373       5.95548373       2.98640285       0.04989642       0.04989642      -0.02049188
Nb       7.46277854       7.46277854       4.36545775      -0.00000000       0.00000000       0.05107876
Nb       6.11772428       6.11772428       6.11772428       0.02646841       0.02646841       0.02646841
Nb       6.11772428       6.11772428       8.80783281       0.02646841       0.02646841      -0.02646841
Nb       7.46277854       7.46277854      10.56009934      -0.00000000       0.00000000      -0.05107876
Nb       5.95548373       5.95548373      11.93915423       0.04989642       0.04989642       0.02049188
Nb       7.46277854       7.46277854      13.44479119      -0.00000000      -0.00000000       0.00664645
Nb       5.96716560       8.95839148      -0.00000000      -0.02220678       0.02220678       0.00000000
Nb       7.46277854      10.44519294       1.50068982      -0.00000000       0.02652105      -0.03006851
Nb       5.95548373       8.97007336       2.98640285       0.04989642      -0.04989642      -0.02049188
Nb       7.46277854      10.40809514       4.51746195      -0.00000000       0.00302101      -0.00302101
Nb       6.11772428       8.80783281       6.11772428       0.02646841      -0.02646841       0.02646841
Nb       7.46277854      10.56009934       7.46277854       0.00000000      -0.05107876       0.00000000
Nb       6.11772428       8.80783281       8.80783281       0.02646841      -0.02646841      -0.02646841
Nb       7.46277854      10.40809514      10.40809514       0.00000000       0.00302101       0.00302101
Nb       5.95548373       8.97007336      11.93915423       0.04989642      -0.04989642       0.02049188
Nb       7.46277854      10.44519294      13.42486727      -0.00000000       0.02652105       0.03006851
Nb       5.97225568      11.93637706      -0.00000000       0.00387441       0.02498595       0.00000000
Nb       7.46277854      13.43127596       1.49428113      -0.00000000       0.00150501      -0.00150501
Nb       5.97420375      11.93209247       2.99346462       0.02110601      -0.01412799       0.01412799
Nb       7.46277854      13.42486727       4.48036415       0.00000000       0.03006851      -0.02652105
Nb       5.95548373      11.93915423       5.95548373       0.04989642       0.02049188       0.04989642
Nb       7.46277854      13.44479119       7.46277854       0.00000000       0.00664645      -0.00000000
Nb       5.95548373      11.93915423       8.97007336       0.04989642       0.02049188      -0.04989642
Nb       7.46277854      13.42486727      10.44519294      -0.00000000       0.03006851       0.02652105
Nb       5.97420375      11.93209247      11.93209247       0.02110601      -0.01412799      -0.01412799
Nb       7.46277854      13.43127596      13.43127596      -0.00000000       0.00150501       0.00150501
Nb       8.95574625      -0.00000000      -0.00000000      -0.00232827       0.00000000       0.00000000
Nb      10.44696654       1.49439357       1.49439357      -0.01855085       0.00328985       0.00328985
Nb       8.95330141      -0.00000000       2.98918003      -0.00387441       0.00000000      -0.02498595
Nb      10.45086881       1.49720935       4.47468827       0.02670551      -0.03399396      -0.02670551
Nb       8.95839148       0.00000000       5.96716560       0.02220678       0.00000000      -0.02220678
Nb      10.44519294       1.50068982       7.46277854       0.02652105      -0.03006851      -0.00000000
Nb       8.95839148      -0.00000000       8.95839148       0.02220678       0.00000000       0.02220678
Nb      10.45086881       1.49720935      10.45086881       0.02670551      -0.03399396       0.02670551
Nb       8.95330141      -0.00000000      11.93637706      -0.00387441       0.00000000       0.02498595
Nb      10.44696654       1.49439357      13.43116351      -0.01855085       0.00328985      -0.00328985
Nb       8.95330141       2.98918003      -0.00000000      -0.00387441      -0.02498595      -0.00000000
Nb      10.45086881       4.47468827       1.49720935       0.02670551      -0.02670551      -0.03399396
Nb       8.95135334       2.99346462       2.99346462      -0.02110601       0.01412799       0.01412799
Nb      10.40092690       4.52463019       4.52463019      -0.00257066       0.00257066       0.00257066
Nb       8.97007336       2.98640285       5.95548373      -0.04989642      -0.02049188       0.04989642
Nb      10.40809514       4.51746195       7.46277854       0.00302101      -0.00302101      -0.00000000
Nb       8.97007336       2.98640285       8.97007336      -0.04989642      -0.02049188      -0.04989642
Nb      10.40092690       4.52463019      10.40092690      -0.00257066       0.00257066      -0.00257066
Nb       8.95135334       2.99346462      11.93209247      -0.02110601       0.01412799      -0.01412799
Nb      10.45086881       4.47468827      13.42834773       0.02670551      -0.02670551       0.03399396
Nb       8.95839148       5.96716560      -0.00000000       0.02220678      -0.02220678      -0.00000000
Nb      10.44519294       7.46277854       1.50068982       0.02652105      -0.00000000      -0.03006851
Nb       8.97007336       5.95548373       2.98640285      -0.04989642       0.04989642      -0.02049188
Nb      10.40809514       7.46277854       4.51746195       0.00302101       0.00000000      -0.00302101
Nb       8.80783281       6.11772428       6.11772428      -0.02646841       0.02646841       0.02646841
Nb      10.56009934       7.46277854       7.46277854      -0.05107876      -0.00000000       0.00000000
Nb       8.80783281       6.11772428       8.80783281      -0.02646841       0.02646841      -0.02646841
Nb      10.40809514       7.46277854      10.40809514       0.00302101      -0.00000000       0.00302101
Nb       8.97007336       5.95548373      11.93915423      -0.04989642       0.04989642       0.02049188
Nb      10.44519294       7.46277854      13.42486727       0.02652105      -0.00000000       0.03006851
Nb       8.95839148       8.95839148      -0.00000000       0.02220678       0.02220678      -0.00000000
Nb      10.45086881      10.45086881       1.49720935       0.02670551       0.02670551      -0.03399396
Nb       8.97007336       8.97007336       2.98640285      -0.04989642      -0.04989642      -0.02049188
Nb      10.40092690      10.40092690       4.52463019      -0.00257066      -0.00257066       0.00257066
Nb       8.80783281       8.80783281       6.11772428      -0.02646841      -0.02646841       0.02646841
Nb      10.40809514      10.40809514       7.46277854       0.00302101       0.00302101      -0.00000000
Nb       8.80783281       8.80783281       8.80783281      -0.02646841      -0.02646841      -0.02646841
Nb      10.40092690      10.40092690      10.40092690      -0.00257066      -0.00257066      -0.00257066
Nb       8.97007336       8.97007336      11.93915423      -0.04989642      -0.04989642       0.02049188
Nb      10.45086881      10.45086881      13.42834773       0.02670551       0.02670551       0.03399396
Nb       8.95330141      11.93637706      -0.00000000      -0.00387441       0.02498595      -0.00000000
Nb      10.44696654      13.43116351       1.49439357      -0.01855085      -0.00328985       0.00328985
Nb       8.95135334      11.93209247       2.99346462      -0.02110601      -0.01412799       0.01412799
Nb      10.45086881      13.42834773       4.47468827       0.02670551       0.03399396      -0.02670551
Nb       8.97007336      11.93915423       5.95548373      -0.04989642       0.02049188       0.04989642
Nb      10.44519294      13.42486727       7.46277854       0.02652105       0.03006851       0.00000000
Nb       8.97007336      11.93915423       8.97007336      -0.04989642       0.02049188      -0.04989642
Nb      10.45086881      13.42834773      10.45086881       0.02670551       0.03399396       0.02670551
Nb       8.95135334      11.93209247      11.93209247      -0.02110601      -0.01412799      -0.01412799
Nb      10.44696654      13.43116351      13.43116351      -0.01855085      -0.00328985      -0.00328985
Nb      11.94169873      -0.00000000      -0.00000000       0.01364020       0.00000000      -0.00000000
Nb      13.42846625       1.49709084       1.49709084      -0.02406031       0.02406031       0.02406031
Nb      11.93851099      -0.00000000       2.98704610       0.03210568      -0.00000000      -0.03210568
Nb      13.43116351       1.49439357       4.47859054      -0.00328985       0.00328985       0.01855085
Nb      11.93637706      -0.00000000       5.97225568       0.02498595       0.00000000       0.00387441
Nb      13.43127596       1.49428113       7.46277854       0.00150501      -0.00150501       0.00000000
Nb      11.93637706      -0.00000000       8.95330141       0.02498595       0.00000000      -0.00387441
Nb      13.43116351       1.49439357      10.44696654      -0.00328985       0.00328985      -0.01855085
Nb      11.93851099      -0.00000000      11.93851099       0.03210568       0.00000000       0.03210568
Nb      13.42846625       1.49709084      13.42846625      -0.02406031       0.02406031      -0.02406031
Nb      11.93851099       2.98704610      -0.00000000       0.03210568      -0.03210568      -0.00000000
Nb      13.43116351       4.47859054       1.49439357      -0.00328985       0.01855085       0.00328985
Nb      11.92337004       3.00218704       3.00218704      -0.01780624       0.01780624       0.01780624
Nb      13.42834773       4.47468827       4.47468827       0.03399396      -0.02670551      -0.02670551
Nb      11.93209247       2.99346462       5.97420375      -0.01412799       0.01412799       0.02110601
Nb      13.42486727       4.48036415       7.46277854       0.03006851      -0.02652105      -0.00000000
Nb      11.93209247       2.99346462       8.95135334      -0.01412799       0.01412799      -0.02110601
Nb      13.42834773       4.47468827      10.45086881       0.03399396      -0.02670551       0.02670551
Nb      11.92337004       3.00218704      11.92337004      -0.01780624       0.01780624      -0.01780624
Nb      13.43116351       4.47859054      13.43116351      -0.00328985       0.01855085      -0.00328985
Nb      11.93637706       5.97225568      -0.00000000       0.02498595       0.00387441       0.00000000
Nb      13.43127596       7.46277854       1.49428113       0.00150501       0.00000000      -0.00150501
Nb      11.93209247       5.97420375       2.99346462      -0.01412799       0.02110601       0.01412799
Nb      13.42486727       7.46277854       4.48036415       0.03006851       0.00000000      -0.02652105
Nb      11.93915423       5.95548373       5.95548373       0.02049188       0.04989642       0.04989642
Nb      13.44479119       7.46277854       7.46277854       0.00664645      -0.00000000       0.00000000
Nb      11.93915423       5.95548373       8.97007336       0.02049188       0.04989642      -0.04989642
Nb      13.42486727       7.46277854      10.44519294       0.03006851       0.00000000       0.02652105
Nb      11.93209247       5.97420375      11.93209247      -0.01412799       0.02110601      -0.01412799
Nb      13.43127596       7.46277854      13.43127596       0.00150501       0.00000000       0.00150501
Nb      11.93637706       8.95330141      -0.00000000       0.02498595      -0.00387441      -0.00000000
Nb      13.43116351      10.44696654       1.49439357      -0.00328985      -0.01855085       0.00328985
Nb      11.93209247       8.95135334       2.99346462      -0.01412799      -0.02110601       0.01412799
Nb      13.42834773      10.45086881       4.47468827       0.03399396       0.02670551      -0.02670551
Nb      11.93915423       8.97007336       5.95548373       0.02049188      -0.04989642       0.04989642
Nb      13.42486727      10.44519294       7.46277854       0.03006851       0.02652105       0.00000000
Nb      11.93915423       8.97007336       8.97007336       0.02049188      -0.04989642      -0.04989642
Nb      13.42834773      10.45086881      10.45086881       0.03399396       0.02670551       0.02670551
Nb      11.93209247       8.95135334      11.93209247      -0.01412799      -0.02110601      -0.01412799
Nb      13.43116351      10.44696654      13.43116351      -0.00328985      -0.01855085      -0.00328985
Nb      11.93851099      11.93851099      -0.00000000       0.03210568       0.03210568      -0.00000000
Nb      13.42846625      13.42846625       1.49709084      -0.02406031      -0.02406031       0.02406031
Nb      11.92337004      11.92337004       3.00218704      -0.01780624      -0.01780624       0.01780624
Nb      13.43116351      13.43116351       4.47859054      -0.00328985      -0.00328985       0.01855085
Nb      11.93209247      11.93209247       5.97420375      -0.01412799      -0.01412799       0.02110601
Nb      13.43127596      13.43127596       7.46277854       0.00150501       0.00150501      -0.00000000
Nb      11.93209247      11.93209247       8.95135334      -0.01412799      -0.01412799      -0.02110601
Nb      13.43116351      13.43116351      10.44696654      -0.00328985      -0.00328985      -0.01855085
Nb      11.92337004      11.92337004      11.92337004      -0.01780624      -0.01780624      -0.01780624
Nb      13.42846625      13.42846625      13.42846625      -0.02406031      -0.02406031      -0.02406031
249
Lattice="15.036945962049746 0.0 0.0 0.0 15.036945962049746 0.0 0.0 0.0 15.036945962049746" Properties=species:S:1:pos:R:3:forces:R:3 energy=-2248.463196855931 energy_per_atom=-9.02997267813627 stress_voigt="-0.6131328353083939 -0.6131328353083946 -0.6131328353083952 -1.4118788480483806e-17 1.1964578563823966e-17 -6.258027350598448e-18" meta="_JSON {\"supercell\": \"5x5x5\", \"volume_per_atom_initial\": 13.6, \"type\": \"vacancy\", \"relaxed\": true}" pbc="T T T"
Nb       0.00000000       0.00000000       0.00000000       0.00000000       0.00000000       0.00000000
Nb       1.50779082       1.50779082       1.50779082       0.02372602       0.02372602       0.02372602
Nb       0.00000000       0.00000000       3.00687477       0.00000000       0.00000000      -0.01355294
Nb       1.50568426       1.50568426       4.51229607       0.00245850       0.00245850       0.01529720
Nb       0.00000000       0.00000000       6.01468898      -0.00000000      -0.00000000       0.00110160
Nb       1.50569385       1.50569385       7.51847298      -0.00115619      -0.00115619       0.00000000
Nb       0.00000000       0.00000000       9.02225698      -0.00000000      -0.00000000      -0.00110160
Nb       1.50568426       1.50568426      10.52464989       0.00245850       0.00245850      -0.01529720
Nb      -0.00000000      -0.00000000      12.03007119       0.00000000       0.00000000       0.01355294
Nb       1.50779082       1.50779082      13.52915514       0.02372602       0.02372602      -0.02372602
Nb       0.00000000       3.00687477       0.00000000       0.00000000      -0.01355294       0.00000000
Nb       1.50568426       4.51229607       1.50568426       0.00245850       0.01529720       0.00245850
Nb       0.00000000       3.00970575       3.00970575       0.00000000      -0.02814675      -0.02814675
Nb       1.50885959       4.50907315       4.50907315      -0.03549852      -0.02883297      -0.02883297
Nb      -0.00000000       3.01192165       6.01700064      -0.00000000      -0.02015089       0.00380672
Nb       1.51234013       4.51466565       7.51847298      -0.02817413      -0.02627139       0.00000000
Nb      -0.00000000       3.01192165       9.01994532      -0.00000000      -0.02015089      -0.00380672
Nb       1.50885959       4.50907315      10.52787282      -0.03549852      -0.02883297       0.02883297
Nb      -0.00000000       3.00970575      12.02724021      -0.00000000      -0.02814675       0.02814675
Nb       1.50568426       4.51229607      13.53126170       0.00245850       0.01529720      -0.00245850
Nb       0.00000000       6.01468898       0.00000000      -0.00000000       0.00110160      -0.00000000
Nb       1.50569385       7.51847298       1.50569385      -0.00115619      -0.00000000      -0.00115619
Nb      -0.00000000       6.01700064       3.01192165       0.00000000       0.00380672      -0.02015089
Nb       1.51234013       7.51847298       4.51466565      -0.02817413       0.00000000      -0.02627139
Nb      -0.00000000       6.01246085       6.01246085      -0.00000000      -0.02258456      -0.02258456
Nb       1.49328456       7.51847298       7.51847298      -0.00432300       0.00000000      -0.00000000
Nb      -0.00000000       6.01246085       9.02448511      -0.00000000      -0.02258456       0.02258456