249
Lattice="14.925557087285043 0.0 0.0 0.0 14.925557087285043 0.0 0.0 0.0 14.925557087285043" Properties=species:S:1:pos:R:3:forces:R:3 energy=-2546.758138349414 energy_per_atom=-10.227944330720538 stress_voigt="-0.38320734048550764 -0.3832073404855072 -0.38320734048550675 -8.70034743932085e-18 2.9260651815722686e-19 -4.174028696762724e-18" meta="_JSON {\"supercell\": \"5x5x5\", \"volume_per_atom_initial\": 13.3, \"type\": \"vacancy\", \"relaxed\": true}" pbc="T T T"
Mo       0.00000000       0.00000000       0.00000000      -0.00000000      -0.00000000      -0.00000000
Mo       1.49196880       1.49196880       1.49196880       0.01915810       0.01915810       0.01915810
Mo       0.00000000       0.00000000       2.98473650      -0.00000000      -0.00000000       0.02420488
Mo       1.49447270       1.49447270       4.47843122       0.00205094       0.00205094       0.00939680
Mo      -0.00000000      -0.00000000       5.97045322      -0.00000000      -0.00000000       0.01752143
Mo       1.49704061       1.49704061       7.46277854      -0.00608542      -0.00608542       0.00000000
Mo      -0.00000000      -0.00000000       8.95510387      -0.00000000      -0.00000000      -0.01752143
Mo       1.49447270       1.49447270      10.44712586       0.00205094       0.00205094      -0.00939680
Mo       0.00000000       0.00000000      11.94082058      -0.00000000      -0.00000000      -0.02420488
Mo       1.49196880       1.49196880      13.43358829       0.01915810       0.01915810      -0.01915810
Mo      -0.00000000       2.98473650       0.00000000      -0.00000000       0.02420488       0.00000000
Mo       1.49447270       4.47843122       1.49447270       0.00205094       0.00939680       0.00205094
Mo      -0.00000000       2.98588810       2.98588810       0.00000000       0.01363627       0.01363627
Mo       1.49959161       4.47953196       4.47953196      -0.02903946      -0.02730221      -0.02730221
Mo       0.00000000       2.98949209       5.97212896       0.00000000      -0.00657940       0.00504459
Mo       1.50249114       4.48430004       7.46277854      -0.01165284      -0.01376766       0.00000000
Mo       0.00000000       2.98949209       8.95342813       0.00000000      -0.00657940      -0.00504459
Mo       1.49959161       4.47953196      10.44602512      -0.02903946      -0.02730221       0.02730221
Mo      -0.00000000       2.98588810      11.93966899       0.00000000       0.01363627      -0.01363627
Mo       1.49447270       4.47843122      13.43108439       0.00205094       0.00939680      -0.00205094
Mo       0.00000000       5.97045322       0.00000000      -0.00000000       0.01752143      -0.00000000
Mo       1.49704061       7.46277854       1.49704061      -0.00608542      -0.00000000      -0.00608542
Mo       0.00000000       5.97212896       2.98949209      -0.00000000       0.00504459      -0.00657940
Mo       1.50249114       7.46277854       4.48430004      -0.01165284       0.00000000      -0.01376766
Mo       0.00000000       5.97394226       5.97394226      -0.00000000      -0.02090877      -0.02090877
Mo       1.50140447       7.46277854       7.46277854       0.00919652      -0.00000000       0.00000000
Mo       0.00000000       5.97394226       8.95161482      -0.00000000      -0.02090877       0.02090877
Mo       1.50249114       7.46277854      10.44125705      -0.01165284       0.00000000       0.01376766
Mo       0.00000000       5.97212896      11.93606499       0.00000000       0.00504459       0.00657940
Mo       1.49704061       7.46277854      13.42851648      -0.00608542      -0.00000000       0.00608542
Mo      -0.00000000       8.95510387      -0.00000000      -0.00000000      -0.01752143      -0.00000000
Mo       1.49447270      10.44712586       1.49447270       0.00205094      -0.00939680       0.00205094
Mo       0.00000000       8.95342813       2.98949209       0.00000000      -0.00504459      -0.00657940
Mo       1.49959161      10.44602512       4.47953196      -0.02903946       0.02730221      -0.02730221
Mo       0.00000000       8.95161482       5.97394226       0.00000000       0.02090877      -0.02090877
Mo       1.50249114      10.44125705       7.46277854      -0.01165284       0.01376766       0.00000000
Mo       0.00000000       8.95161482       8.95161482      -0.00000000       0.02090877       0.02090877
Mo       1.49959161      10.44602512      10.44602512      -0.02903946       0.02730221       0.02730221
Mo      -0.00000000       8.95342813      11.93606499       0.00000000      -0.00504459       0.00657940
Mo       1.49447270      10.44712586      13.43108439       0.00205094      -0.00939680      -0.00205094
Mo       0.00000000      11.94082058       0.00000000      -0.00000000      -0.02420488      -0.00000000
Mo       1.49196880      13.43358829       1.49196880       0.01915810      -0.01915810       0.01915810
Mo       0.00000000      11.93966899       2.98588810       0.00000000      -0.01363627       0.01363627
Mo       1.49447270      13.43108439       4.47843122       0.00205094      -0.00205094       0.00939680
Mo       0.00000000      11.93606499       5.97212896       0.00000000       0.00657940       0.00504459
Mo       1.49704061      13.42851648       7.46277854      -0.00608542       0.00608542      -0.00000000
Mo      -0.00000000      11.93606499       8.95342813       0.00000000       0.00657940      -0.00504459
Mo       1.49447270      13.43108439      10.44712586       0.00205094      -0.00205094      -0.00939680
Mo       0.00000000      11.93966899      11.93966899       0.00000000      -0.01363627      -0.01363627
Mo       1.49196880      13.43358829      13.43358829       0.01915810      -0.01915810      -0.01915810
Mo       2.98473650       0.00000000       0.00000000       0.02420488      -0.00000000      -0.00000000
Mo       4.47843122       1.49447270       1.49447270       0.00939680       0.00205094       0.00205094
Mo       2.98588810      -0.00000000       2.98588810       0.01363627       0.00000000       0.01363627
Mo       4.47953196       1.49959161       4.47953196      -0.02730221      -0.02903946      -0.02730221
Mo       2.98949209       0.00000000       5.97212896      -0.00657940      -0.00000000       0.00504459
Mo       4.48430004       1.50249114       7.46277854      -0.01376766      -0.01165284       0.00000000
Mo       2.98949209       0.00000000       8.95342813      -0.00657940      -0.00000000      -0.00504459
Mo       4.47953196       1.49959161      10.44602512      -0.02730221      -0.02903946       0.02730221
Mo       2.98588810      -0.00000000      11.93966899       0.01363627       0.00000000      -0.01363627
Mo       4.47843122       1.49447270      13.43108439       0.00939680       0.00205094      -0.00205094
Mo       2.98588810       2.98588810       0.00000000       0.01363627       0.01363627       0.00000000
Mo       4.47953196       4.47953196       1.49959161      -0.02730221      -0.02730221      -0.02903946
Mo       2.99019568       2.99019568       2.99019568       0.01369659       0.01369659       0.01369659
Mo       4.51535557       4.51535557       4.51535557       0.01547453       0.01547453       0.01547453
Mo       2.99712339       2.99712339       5.97121853      -0.00463371      -0.00463371       0.01458787
Mo       4.51598165       4.51598165       7.46277854       0.02436647       0.02436647       0.00000000
Mo       2.99712339       2.99712339       8.95433855      -0.00463371      -0.00463371      -0.01458787
Mo       4.51535557       4.51535557      10.41020151       0.01547453       0.01547453      -0.01547453
Mo       2.99019568       2.99019568      11.93536141       0.01369659       0.01369659      -0.01369659
Mo       4.47953196       4.47953196      13.42596548      -0.02730221      -0.02730221       0.02903946
Mo       2.98949209       5.97212896       0.00000000      -0.00657940       0.00504459       0.00000000
Mo       4.48430004       7.46277854       1.50249114      -0.01376766      -0.00000000      -0.01165284
Mo       2.99712339       5.97121853       2.99712339      -0.00463371       0.01458787      -0.00463371
Mo       4.51598165       7.46277854       4.51598165       0.02436647       0.00000000       0.02436647
Mo       3.00585899       5.95875934       5.95875934      -0.03735794       0.03505306       0.03505306
Mo       4.41970293       7.46277854       7.46277854      -0.09415400       0.00000000       0.00000000
Mo       3.00585899       5.95875934       8.96679775      -0.03735794       0.03505306      -0.03505306
Mo       4.51598165       7.46277854      10.40957543       0.02436647      -0.00000000      -0.02436647
Mo       2.99712339       5.97121853      11.92843369      -0.00463371       0.01458787       0.00463371
Mo       4.48430004       7.46277854      13.42306595      -0.01376766       0.00000000       0.01165284
Mo       2.98949209       8.95342813       0.00000000      -0.00657940      -0.00504459       0.00000000
Mo       4.47953196      10.44602512       1.49959161      -0.02730221       0.02730221      -0.02903946
Mo       2.99712339       8.95433855       2.99712339      -0.00463371      -0.01458787      -0.00463371
Mo       4.51535557      10.41020151       4.51535557       0.01547453      -0.01547453       0.01547453
Mo       3.00585899       8.96679775       5.95875934      -0.03735794      -0.03505306       0.03505306
Mo       4.51598165      10.40957543       7.46277854       0.02436647      -0.02436647      -0.00000000
Mo       3.00585899       8.96679775       8.96679775      -0.03735794      -0.03505306      -0.03505306
Mo       4.51535557      10.41020151      10.41020151       0.01547453      -0.01547453      -0.01547453
Mo       2.99712339       8.95433855      11.92843369      -0.00463371      -0.01458787       0.00463371
Mo       4.47953196      10.44602512      13.42596548      -0.02730221       0.02730221       0.02903946
Mo       2.98588810      11.93966899       0.00000000       0.01363627      -0.01363627       0.00000000
Mo       4.47843122      13.43108439       1.49447270       0.00939680      -0.00205094       0.00205094
Mo       2.99019568      11.93536141       2.99019568       0.01369659      -0.01369659       0.01369659
Mo       4.47953196      13.42596548       4.47953196      -0.02730221       0.02903946      -0.02730221
Mo       2.99712339      11.92843369       5.97121853      -0.00463371       0.00463371       0.01458787
Mo       4.48430004      13.42306595       7.46277854      -0.01376766       0.01165284      -0.00000000
Mo       2.99712339      11.92843369       8.95433855      -0.00463371       0.00463371      -0.01458787
Mo       4.47953196      13.42596548      10.44602512      -0.02730221       0.02903946       0.02730221
Mo       2.99019568      11.93536141      11.93536141       0.01369659      -0.01369659      -0.01369659
Mo       4.47843122      13.43108439      13.43108439       0.00939680      -0.00205094      -0.00205094
Mo       5.97045322       0.00000000      -0.00000000       0.01752143      -0.00000000      -0.00000000
Mo       7.46277854       1.49704061       1.49704061      -0.00000000      -0.00608542      -0.00608542
Mo       5.97212896       0.00000000       2.98949209       0.00504459       0.00000000      -0.00657940
Mo       7.46277854       1.50249114       4.48430004       0.00000000      -0.01165284      -0.01376766
Mo       5.97394226       0.00000000       5.97394226      -0.02090877      -0.00000000      -0.02090877
Mo       7.46277854       1.50140447       7.46277854       0.00000000       0.00919652      -0.00000000
Mo       5.97394226       0.00000000       8.95161482      -0.02090877      -0.00000000       0.02090877
Mo       7.46277854       1.50249114      10.44125705       0.00000000      -0.01165284       0.01376766
Mo       5.97212896      -0.00000000      11.93606499       0.00504459      -0.00000000       0.00657940
Mo       7.46277854       1.49704061      13.42851648      -0.00000000      -0.00608542       0.00608542
Mo       5.97212896       2.98949209       0.00000000       0.00504459      -0.00657940      -0.00000000
Mo       7.46277854       4.48430004       1.50249114       0.00000000      -0.01376766      -0.01165284
Mo       5.97121853       2.99712339       2.99712339       0.01458787      -0.00463371      -0.00463371
Mo       7.46277854       4.51598165       4.51598165       0.00000000       0.02436647       0.02436647
Mo       5.95875934       3.00585899       5.95875934       0.03505306      -0.03735794       0.03505306
Mo       7.46277854       4.41970293       7.46277854       0.00000000      -0.09415400       0.00000000
Mo       5.95875934       3.00585899       8.96679775       0.03505306      -0.03735794      -0.03505306
Mo       7.46277854       4.51598165      10.40957543      -0.00000000       0.02436647      -0.02436647
Mo       5.97121853       2.99712339      11.92843369       0.01458787      -0.00463371       0.00463371
Mo       7.46277854       4.48430004      13.42306595      -0.00000000      -0.01376766       0.01165284
Mo       5.97394226       5.97394226       0.00000000      -0.02090877      -0.02090877       0.00000000
Mo       7.46277854       7.46277854       1.50140447       0.00000000       0.00000000       0.00919652
Mo       5.95875934       5.95875934       3.00585899       0.03505306       0.03505306      -0.03735794
Mo       7.46277854       7.46277854       4.41970293       0.00000000       0.00000000      -0.09415400
Mo       6.11169467       6.11169467       6.11169467       0.00462471       0.00462471       0.00462471
Mo       6.11169467       6.11169467       8.81386242       0.00462471       0.00462471      -0.00462471
Mo       7.46277854       7.46277854      10.50585416       0.00000000       0.00000000       0.09415400
Mo       5.95875934       5.95875934      11.91969810       0.03505306       0.03505306       0.03735794
Mo       7.46277854       7.46277854      13.42415262       0.00000000       0.00000000      -0.00919652
Mo       5.97394226       8.95161482       0.00000000      -0.02090877       0.02090877      -0.00000000
Mo       7.46277854      10.44125705       1.50249114       0.00000000       0.01376766      -0.01165284
Mo       5.95875934       8.96679775       3.00585899       0.03505306      -0.03505306      -0.03735794
Mo       7.46277854      10.40957543       4.51598165      -0.00000000      -0.02436647       0.02436647
Mo       6.11169467       8.81386242       6.11169467       0.00462471      -0.00462471       0.00462471
Mo       7.46277854      10.50585416       7.46277854       0.00000000       0.09415400      -0.00000000
Mo       6.11169467       8.81386242       8.81386242       0.00462471      -0.00462471      -0.00462471
Mo       7.46277854      10.40957543      10.40957543       0.00000000      -0.02436647      -0.02436647
Mo       5.95875934       8.96679775      11.91969810       0.03505306      -0.03505306       0.03735794
Mo       7.46277854      10.44125705      13.42306595       0.00000000       0.01376766       0.01165284
Mo       5.97212896      11.93606499       0.00000000       0.00504459       0.00657940      -0.00000000
Mo       7.46277854      13.42851648       1.49704061      -0.00000000       0.00608542      -0.00608542
Mo       5.97121853      11.92843369       2.99712339       0.01458787       0.00463371      -0.00463371
Mo       7.46277854      13.42306595       4.48430004       0.00000000       0.01165284      -0.01376766
Mo       5.95875934      11.91969810       5.95875934       0.03505306       0.03735794       0.03505306
Mo       7.46277854      13.42415262       7.46277854      -0.00000000      -0.00919652       0.00000000
Mo       5.95875934      11.91969810       8.96679775       0.03505306       0.03735794      -0.03505306
Mo       7.46277854      13.42306595      10.44125705       0.00000000       0.01165284       0.01376766
Mo       5.97121853      11.92843369      11.92843369       0.01458787       0.00463371       0.00463371
Mo       7.46277854      13.42851648      13.42851648      -0.00000000       0.00608542       0.00608542
Mo       8.95510387       0.00000000      -0.00000000      -0.01752143      -0.00000000      -0.00000000
Mo      10.44712586       1.49447270       1.49447270      -0.00939680       0.00205094       0.00205094
Mo       8.95342813       0.00000000       2.98949209      -0.00504459      -0.00000000      -0.00657940
Mo      10.44602512       1.49959161       4.47953196       0.02730221      -0.02903946      -0.02730221
Mo       8.95161482       0.00000000       5.97394226       0.02090877       0.00000000      -0.02090877
Mo      10.44125705       1.50249114       7.46277854       0.01376766      -0.01165284       0.00000000
Mo       8.95161482       0.00000000       8.95161482       0.02090877      -0.00000000       0.02090877
Mo      10.44602512       1.49959161      10.44602512       0.02730221      -0.02903946       0.02730221
Mo       8.95342813      -0.00000000      11.93606499      -0.00504459       0.00000000       0.00657940
Mo      10.44712586       1.49447270      13.43108439      -0.00939680       0.00205094      -0.00205094
Mo       8.95342813       2.98949209       0.00000000      -0.00504459      -0.00657940      -0.00000000
Mo      10.44602512       4.47953196       1.49959161       0.02730221      -0.02730221      -0.02903946
Mo       8.95433855       2.99712339       2.99712339      -0.01458787      -0.00463371      -0.00463371
Mo      10.41020151       4.51535557       4.51535557      -0.01547453       0.01547453       0.01547453
Mo       8.96679775       3.00585899       5.95875934      -0.03505306      -0.03735794       0.03505306
Mo      10.40957543       4.51598165       7.46277854      -0.02436647       0.02436647       0.00000000
Mo       8.96679775       3.00585899       8.96679775      -0.03505306      -0.03735794      -0.03505306
Mo      10.41020151       4.51535557      10.41020151      -0.01547453       0.01547453      -0.01547453
Mo       8.95433855       2.99712339      11.92843369      -0.01458787      -0.00463371       0.00463371
Mo      10.44602512       4.47953196      13.42596548       0.02730221      -0.02730221       0.02903946
Mo       8.95161482       5.97394226       0.00000000       0.02090877      -0.02090877       0.00000000
Mo      10.44125705       7.46277854       1.50249114       0.01376766       0.00000000      -0.01165284
Mo       8.96679775       5.95875934       3.00585899      -0.03505306       0.03505306      -0.03735794
Mo      10.40957543       7.46277854       4.51598165      -0.02436647      -0.00000000       0.02436647
Mo       8.81386242       6.11169467       6.11169467      -0.00462471       0.00462471       0.00462471
Mo      10.50585416       7.46277854       7.46277854       0.09415400      -0.00000000       0.00000000
Mo       8.81386242       6.11169467       8.81386242      -0.00462471       0.00462471      -0.00462471
Mo      10.40957543       7.46277854      10.40957543      -0.02436647       0.00000000      -0.02436647
Mo       8.96679775       5.95875934      11.91969810      -0.03505306       0.03505306       0.03735794
Mo      10.44125705       7.46277854      13.42306595       0.01376766       0.00000000       0.01165284
Mo       8.95161482       8.95161482       0.00000000       0.02090877       0.02090877      -0.00000000
Mo      10.44602512      10.44602512       1.49959161       0.02730221       0.02730221      -0.02903946
Mo       8.96679775       8.96679775       3.00585899      -0.03505306      -0.03505306      -0.03735794
Mo      10.41020151      10.41020151       4.51535557      -0.01547453      -0.01547453       0.01547453
Mo       8.81386242       8.81386242       6.11169467      -0.00462471      -0.00462471       0.00462471
Mo      10.40957543      10.40957543       7.46277854      -0.02436647      -0.02436647       0.00000000
Mo       8.81386242       8.81386242       8.81386242      -0.00462471      -0.00462471      -0.00462471
Mo      10.41020151      10.41020151      10.41020151      -0.01547453      -0.01547453      -0.01547453
Mo       8.96679775       8.96679775      11.91969810      -0.03505306      -0.03505306       0.03735794
Mo      10.44602512      10.44602512      13.42596548       0.02730221       0.02730221       0.02903946
Mo       8.95342813      11.93606499      -0.00000000      -0.00504459       0.00657940       0.00000000
Mo      10.44712586      13.43108439       1.49447270      -0.00939680      -0.00205094       0.00205094
Mo       8.95433855      11.92843369       2.99712339      -0.01458787       0.00463371      -0.00463371
Mo      10.44602512      13.42596548       4.47953196       0.02730221       0.02903946      -0.02730221
Mo       8.96679775      11.91969810       5.95875934      -0.03505306       0.03735794       0.03505306
Mo      10.44125705      13.42306595       7.46277854       0.01376766       0.01165284       0.00000000
Mo       8.96679775      11.91969810       8.96679775      -0.03505306       0.03735794      -0.03505306
Mo      10.44602512      13.42596548      10.44602512       0.02730221       0.02903946       0.02730221
Mo       8.95433855      11.92843369      11.92843369      -0.01458787       0.00463371       0.00463371
Mo      10.44712586      13.43108439      13.43108439      -0.00939680      -0.00205094      -0.00205094
Mo      11.94082058       0.00000000       0.00000000      -0.02420488      -0.00000000      -0.00000000
Mo      13.43358829       1.49196880       1.49196880      -0.01915810       0.01915810       0.01915810
Mo      11.93966899       0.00000000       2.98588810      -0.01363627       0.00000000       0.01363627
Mo      13.43108439       1.49447270       4.47843122      -0.00205094       0.00205094       0.00939680
Mo      11.93606499       0.00000000       5.97212896       0.00657940      -0.00000000       0.00504459
Mo      13.42851648       1.49704061       7.46277854       0.00608542      -0.00608542       0.00000000
Mo      11.93606499       0.00000000       8.95342813       0.00657940       0.00000000      -0.00504459
Mo      13.43108439       1.49447270      10.44712586      -0.00205094       0.00205094      -0.00939680
Mo      11.93966899       0.00000000      11.93966899      -0.01363627       0.00000000      -0.01363627
Mo      13.43358829       1.49196880      13.43358829      -0.01915810       0.01915810      -0.01915810
Mo      11.93966899       2.98588810       0.00000000      -0.01363627       0.01363627      -0.00000000
Mo      13.43108439       4.47843122       1.49447270      -0.00205094       0.00939680       0.00205094
Mo      11.93536141       2.99019568       2.99019568      -0.01369659       0.01369659       0.01369659
Mo      13.42596548       4.47953196       4.47953196       0.02903946      -0.02730221      -0.02730221
Mo      11.92843369       2.99712339       5.97121853       0.00463371      -0.00463371       0.01458787
Mo      13.42306595       4.48430004       7.46277854       0.01165284      -0.01376766       0.00000000
Mo      11.92843369       2.99712339       8.95433855       0.00463371      -0.00463371      -0.01458787
Mo      13.42596548       4.47953196      10.44602512       0.02903946      -0.02730221       0.02730221
Mo      11.93536141       2.99019568      11.93536141      -0.01369659       0.01369659      -0.01369659
Mo      13.43108439       4.47843122      13.43108439      -0.00205094       0.00939680      -0.00205094
Mo      11.93606499       5.97212896       0.00000000       0.00657940       0.00504459      -0.00000000
Mo      13.42851648       7.46277854       1.49704061       0.00608542      -0.00000000      -0.00608542
Mo      11.92843369       5.97121853       2.99712339       0.00463371       0.01458787      -0.00463371
Mo      13.42306595       7.46277854       4.48430004       0.01165284      -0.00000000      -0.01376766
Mo      11.91969810       5.95875934       5.95875934       0.03735794       0.03505306       0.03505306
Mo      13.42415262       7.46277854       7.46277854      -0.00919652      -0.00000000       0.00000000
Mo      11.91969810       5.95875934       8.96679775       0.03735794       0.03505306      -0.03505306
Mo      13.42306595       7.46277854      10.44125705       0.01165284       0.00000000       0.01376766
Mo      11.92843369       5.97121853      11.92843369       0.00463371       0.01458787       0.00463371
Mo      13.42851648       7.46277854      13.42851648       0.00608542      -0.00000000       0.00608542
Mo      11.93606499       8.95342813      -0.00000000       0.00657940      -0.00504459      -0.00000000
Mo      13.43108439      10.44712586       1.49447270      -0.00205094      -0.00939680       0.00205094
Mo      11.92843369       8.95433855       2.99712339       0.00463371      -0.01458787      -0.00463371
Mo      13.42596548      10.44602512       4.47953196       0.02903946       0.02730221      -0.02730221
Mo      11.91969810       8.96679775       5.95875934       0.03735794      -0.03505306       0.03505306
Mo      13.42306595      10.44125705       7.46277854       0.01165284       0.01376766      -0.00000000
Mo      11.91969810       8.96679775       8.96679775       0.03735794      -0.03505306      -0.03505306
Mo      13.42596548      10.44602512      10.44602512       0.02903946       0.02730221       0.02730221
Mo      11.92843369       8.95433855      11.92843369       0.00463371      -0.01458787       0.00463371
Mo      13.43108439      10.44712586      13.43108439      -0.00205094      -0.00939680      -0.00205094
Mo      11.93966899      11.93966899       0.00000000      -0.01363627      -0.01363627       0.00000000
Mo      13.43358829      13.43358829       1.49196880      -0.01915810      -0.01915810       0.01915810
Mo      11.93536141      11.93536141       2.99019568      -0.01369659      -0.01369659       0.01369659
Mo      13.43108439      13.43108439       4.47843122      -0.00205094      -0.00205094       0.00939680
Mo      11.92843369      11.92843369       5.97121853       0.00463371       0.00463371       0.01458787
Mo      13.42851648      13.42851648       7.46277854       0.00608542       0.00608542      -0.00000000
Mo      11.92843369      11.92843369       8.95433855       0.00463371       0.00463371      -0.01458787
Mo      13.43108439      13.43108439      10.44712586      -0.00205094      -0.00205094      -0.00939680
Mo      11.93536141      11.93536141      11.93536141      -0.01369659      -0.01369659      -0.01369659
Mo      13.43358829      13.43358829      13.43358829      -0.01915810      -0.01915810      -0.01915810
249
Lattice="15.036945962049753 0.0 0.0 0.0 15.036945962049753 0.0 0.0 0.0 15.036945962049753" Properties=species:S:1:pos:R:3:forces:R:3 energy=-2573.491213968968 energy_per_atom=-10.33530608019666 stress_voigt="-0.33000861827964084 -0.33000861827963995 -0.33000861827964045 1.8580141344863255e-17 -8.44418254032132e-18 2.2019955678808766e-17" meta="_JSON {\"supercell\": \"5x5x5\", \"volume_per_atom_initial\": 13.6, \"type\": \"vacancy\", \"relaxed\": true}" pbc="T T T"
Mo      -0.00000000      -0.00000000       0.00000000       0.00000000      -0.00000000       0.00000000
Mo       1.50350288       1.50350288       1.50350288       0.01490734       0.01490734       0.01490734
Mo      -0.00000000       0.00000000       3.00715456       0.00000000      -0.00000000       0.02003080
Mo       1.50578930       1.50578930       4.51189248      -0.00034461      -0.00034461       0.00681542
Mo      -0.00000000      -0.00000000       6.01507330       0.00000000       0.00000000       0.01409228
Mo       1.50808530       1.50808530       7.51847298      -0.00837615      -0.00837615      -0.00000000
Mo      -0.00000000      -0.00000000       9.02187266       0.00000000       0.00000000      -0.01409228
Mo       1.50578930       1.50578930      10.52505348      -0.00034461      -0.00034461      -0.00681542
Mo       0.00000000       0.00000000      12.02979140      -0.00000000      -0.00000000      -0.02003080
Mo       1.50350288       1.50350288      13.53344308       0.01490734       0.01490734      -0.01490734
Mo       0.00000000       3.00715456       0.00000000       0.00000000       0.02003080      -0.00000000
Mo       1.50578930       4.51189248       1.50578930      -0.00034461       0.00681542      -0.00034461
Mo      -0.00000000       3.00825317       3.00825317       0.00000000       0.00898059       0.00898059
Mo       1.51047333       4.51287561       4.51287561      -0.02074361      -0.02183436      -0.02183436
Mo       0.00000000       3.01157887       6.01660210       0.00000000      -0.01044122       0.00252957
Mo       1.51272127       4.51703398       7.51847298      -0.00826384      -0.01194397      -0.00000000
Mo      -0.00000000       3.01157887       9.02034386       0.00000000      -0.01044122      -0.00252957
Mo       1.51047333       4.51287561      10.52407035      -0.02074361      -0.02183436       0.02183436
Mo       0.00000000       3.00825317      12.02869279       0.00000000       0.00898059      -0.00898059
Mo       1.50578930       4.51189248      13.53115666      -0.00034461       0.00681542       0.00034461
Mo      -0.00000000       6.01507330      -0.00000000       0.00000000       0.01409228       0.00000000
Mo       1.50808530       7.51847298       1.50808530      -0.00837615      -0.00000000      -0.00837615
Mo       0.00000000       6.01660210       3.01157887       0.00000000       0.00252957      -0.01044122
Mo       1.51272127       7.51847298       4.51703398      -0.00826384      -0.00000000      -0.01194397
Mo      -0.00000000       6.01806874       6.01806874       0.00000000      -0.01720081      -0.01720081
Mo       1.51142500       7.51847298       7.51847298       0.00361722      -0.00000000       0.00000000
Mo       0.00000000       6.01806874       9.01887722      -0.00000000      -0.01720081       0.01720081